Executable      : siesta
Version         : 5.2.2
Architecture    : x86_64
Compiler version: GNU-13.3.0
Compiler flags  : -march=nocona -mtune=haswell -ftree-vectorize -fPIC -fstack-protector-strong -fno-plt -O2 -ffunction-sections -pipe -isystem <prefix>/include -I<prefix>/_build_env/include -fdebug-prefix-map=<prefix>/work=/usr/local/src/conda/siesta-5.2.2 -fdebug-prefix-map=<prefix>=/usr/local/src/conda-prefix -I<prefix>/lib -fallow-argument-mismatch -O3
Parallelisations: none
NetCDF support
NetCDF-4 support
Lua support
DFT-D3 support

Runtime information:
* Directory : /v/rconte1/dimer/distance2/runs/run020
* Running in serial mode.
>> Start of run:  28-MAR-2025  16:09:58

                           *********************** 
                           *  WELCOME TO SIESTA  * 
                           *********************** 

 NOTE: Siesta V5 introduces some new defaults for basis-set generation
 NOTE: which might lead to slightly different numerical results.
 NOTE: Please see the manual for full details and compatibility measures.


reinit: Reading from standard input
reinit: Dumping input in INPUT_TMP.24358
************************** Dump of input data file ****************************
#DON'T FORGET TO PUT THE .PSF FILE TO THE SAME DIRECTORY
SystemName          Dimer of Carbon                     # Name of the system we want to investigate
SystemLabel         dimer_distance                           # name of output files
NumberOfAtoms       2                                # how many number in the unit cell? Dimer -> 2 atoms
NumberOfSpecies     1                                # how many different type of atoms? Dimer -> 1
%block ChemicalSpeciesLabel
 1  6  C        # Species index, atomic number, species label
%endblock ChemicalSpeciesLabel
# ----------------------
# STRUCTURAL INFORMATION
# ----------------------
LatticeConstant     1.0 Ang
%block LatticeVectors
   10.000000    0.000000    0.000000
    0.000000   10.000000    0.000000
    0.000000    0.000000   10.000000
%endblock LatticeVectors
AtomicCoordinatesFormat Ang
%block AtomicCoordinatesAndAtomicSpecies
    0.000000     0.000000     0.000000   1
    1.400     0.000000     0.000000   1
%endblock AtomicCoordinatesAndAtomicSpecies
# --
# XC
# --
xc.functional	        GGA	
xc.authors		PBE	
# ----
# GRID
# ----
# MeshCutoff 		200. Ry
# ---------------
# Solution Method
# ---------------
SolutionMethod		diagon
ElectronicTemperature	300 K	
# ---
# SCF
# ---
SCF.DM.Tolerance         5.E-6
SCF.H.Tolerance          5.E-5 eV
SCF.Mix                  Hamiltonian
# SCF.Mix.Spin             all
SCF.Mixer.Method         Pulay
SCF.Mixer.Weight         0.15
SCF.Mixer.Kick           10
SCF.Mixer.History        20
MaxSCFIterations	     200
DM.UseSaveDM	     	 T
SaveHS                   T
# --------------
# OUTPUT OPTIONS
# --------------
WriteEigenvalues       F
WriteForces            T
WriteCoorStep          T
WriteCoorXmol          T     # generate the .xyz file 
WriteMDXmol            T     # generate the .ani file 
WriteMullikenPop       1
Write.HirshfeldPop     T
Write.VoronoiPop       T
Write.DM.NetCDF        T
Write.DMHS.NetCDF      T
************************** End of input data file *****************************

reinit: -----------------------------------------------------------------------
reinit: System Name: Dimer of Carbon
reinit: -----------------------------------------------------------------------
reinit: System Label: dimer_distance
reinit: -----------------------------------------------------------------------

initatom: Reading input for the pseudopotentials and atomic orbitals ----------
Species number:   1 Atomic number:    6 Label: C

Ground state valence configuration (from tables):   2s02  2p02  3d00  4f00

---- Processing specs for species: C
Reading pseudopotential information in formatted form from:
  C.psf

---- Pseudopotential check for  C

Pseudized shells:
2s( 2.00) rc: 1.56
2p( 2.00) rc: 1.56
3d( 0.00) rc: 1.56
4f( 0.00) rc: 1.56
Valence configuration for ps generation: (assumed as above)
For C, standard SIESTA heuristics set lmxkb to 3
 (one more than the basis l, including polarization orbitals).
Use PS.lmax or PS.KBprojectors blocks to override.

<basis_specs>
===============================================================================
C                    Z=   6    Mass=  12.011        Charge= 0.17977+309
Lmxo=2 Lmxkb= 3    BasisType=split      Semic=F
L=0  Nsemic=0  Cnfigmx=2
          i=1  nzeta=2  polorb=0  (2s)
            splnorm:   0.15000    
               vcte:    40.000    
               rinn:  -0.90000    
               qcoe:    0.0000    
               qyuk:    0.0000    
               qwid:   0.10000E-01
                rcs:    0.0000      0.0000    
            lambdas:    1.0000      1.0000    
L=1  Nsemic=0  Cnfigmx=2
          i=1  nzeta=2  polorb=1  (2p)  (to be polarized perturbatively)
            splnorm:   0.15000    
               vcte:    40.000    
               rinn:  -0.90000    
               qcoe:    0.0000    
               qyuk:    0.0000    
               qwid:   0.10000E-01
                rcs:    0.0000      0.0000    
            lambdas:    1.0000      1.0000    
L=2  Nsemic=0  Cnfigmx=3
          i=1  nzeta=0  polorb=0  (3d)  (perturbative polarization orbital) (from 2p)
-------------------------------------------------------------------------------
L=0  Nkbl=1  erefs: 0.17977+309
L=1  Nkbl=1  erefs: 0.17977+309
L=2  Nkbl=1  erefs: 0.17977+309
L=3  Nkbl=1  erefs: 0.17977+309
===============================================================================
</basis_specs>

Using PAO.SplitTailNorm
atom: Called for C                     (Z =   6)
Maximum radius (at nrval) set to   50.00000 8518

read_vps: Pseudopotential generation method:
read_vps: ATM 3.2.2 Troullier-Martins                       
Valence charge in pseudo generation:    4.00000

xc_check: Exchange-correlation functional:
xc_check: GGA Perdew, Burke & Ernzerhof 1996
V l=0 = -2*Zval/r beyond r=  1.5347
V l=1 = -2*Zval/r beyond r=  1.5332
V l=2 = -2*Zval/r beyond r=  1.5347
V l=3 = -2*Zval/r beyond r=  1.5347
All V_l potentials equal beyond r=  1.4890
This should be close to max(r_c) in ps generation
All pots = -2*Zval/r beyond r=  1.5347
Using small-core scheme (local charge) for Vlocal

VLOCAL_FROM_CHLOCAL: 99.0% of the norm of Vloc inside     19.577 Ry
VLOCAL_FROM_CHLOCAL: 99.9% of the norm of Vloc inside     44.617 Ry
atom: Maximum radius for chlocal:    1.77931
atom: Maximum radius for r*vlocal+2*Zval:    1.63022

KBgen: Kleinman-Bylander projectors: 
GHOST: No ghost state for L =  0
   l= 0   rc=  1.646704   el= -1.010689   Ekb=  5.277734   kbcos=  0.315993
GHOST: No ghost state for L =  1
   l= 1   rc=  1.648361   el= -0.388490   Ekb= -4.115733   kbcos= -0.351483
GHOST: No ghost state for L =  2
   l= 2   rc=  1.735131   el=  0.012917   Ekb= -1.012311   kbcos= -0.009283
GHOST: No ghost state for L =  3
   l= 3   rc=  1.777521   el=  0.019225   Ekb= -0.424772   kbcos= -0.001204

KBgen: Total number of Kleinman-Bylander projectors:  16
atom: -------------------------------------------------------------------------

atom: SANKEY-TYPE ORBITALS:
atom: Selected multiple-zeta basis: split     

SPLIT: Orbitals with angular momentum L= 0

SPLIT: Basis orbitals for state 2s

SPLIT: PAO cut-off radius determined from an
SPLIT: energy shift=  0.010000 Ry
Split based on tail norm

   izeta = 1
                 lambda =    1.000000
                     rc =    4.484389
                 energy =   -0.999400
                kinetic =    0.879719
    potential(screened) =   -1.879119
       potential(ionic) =   -5.474723

   izeta = 2
                 rmatch =    3.048210
              splitnorm =    0.150000
                 energy =   -0.737057
                kinetic =    1.553917
    potential(screened) =   -2.290974
       potential(ionic) =   -6.191799

SPLIT: Orbitals with angular momentum L= 1

SPLIT: Basis orbitals for state 2p

SPLIT: PAO cut-off radius determined from an
SPLIT: energy shift=  0.010000 Ry
Split based on tail norm

   izeta = 1
                 lambda =    1.000000
                     rc =    5.435719
                 energy =   -0.377283
                kinetic =    2.459011
    potential(screened) =   -2.836294
       potential(ionic) =   -6.303833

   izeta = 2
                 rmatch =    3.691839
              splitnorm =    0.150000
                 energy =   -0.247686
                kinetic =    3.567780
    potential(screened) =   -3.815466
       potential(ionic) =   -7.634895

POLgen: Perturbative polarization orbital with L=  2

POLgen: Polarization orbital for state 2p
Split based on tail norm

   izeta = 1
                     rc =    5.435719
                 energy =    1.173953
                kinetic =    2.358612
    potential(screened) =   -1.184659
       potential(ionic) =   -4.054396
atom: Total number of Sankey-type orbitals: 13

atm_pop: Valence configuration (for local Pseudopot. screening):
 2s( 2.00)                                                            
 2p( 2.00)                                                            
 3d( 0.00)                                                            
Vna: chval, zval:    4.00000   4.00000

Vna:  Cut-off radius for the neutral-atom potential:   5.435719

atom: _________________________________________________________________________

prinput: Basis input 

PAO.BasisType split     

%block ChemicalSpeciesLabel
    1    6 C                       # Species index, atomic number, species label
%endblock ChemicalSpeciesLabel

%block PAO.Basis                 # Define Basis set
# WARNING: This information might be incomplete!
C                     2                    # Species label, number of l-shells
 n=2   0   2                         # n, l, Nzeta 
   4.484      3.048   
   1.000      1.000   
 n=2   1   2 P   1                   # n, l, Nzeta, Polarization, NzetaPol
   5.436      3.692   
   1.000      1.000   
%endblock PAO.Basis

prinput: ----------------------------------------------------------------------

Dumping basis to NetCDF file C.ion.nc
coor:   Atomic-coordinates input format  =     Cartesian coordinates
coor:                                          (in Angstroms)

siesta: Atomic coordinates (Bohr) and species
siesta:      0.00000   0.00000   0.00000  1        1
siesta:      2.64562   0.00000   0.00000  1        2

siesta: System type = molecule  

initatomlists: Number of atoms, orbitals, and projectors:      2    26    32

coxmol: Writing XMOL coordinates into file dimer_distance.xyz                                                                                                                                                                                                                  

siesta: ******************** Simulation parameters ****************************
siesta:
siesta: The following are some of the parameters of the simulation.
siesta: A complete list of the parameters used, including default values,
siesta: can be found in file out.fdf
siesta:
redata: Spin configuration                          = none
redata: Number of spin components                   = 1
redata: Time-Reversal Symmetry                      = T
redata: Spin spiral                                 = F
redata: Long output                                 =   F
redata: Number of Atomic Species                    =        1
redata: Charge density info will appear in .RHO file
redata: Write Mulliken charges (when)               = geometry+end
redata: Write Mulliken Pop.                         = Atomic and Orbital charges
redata: Write Hirshfeld charges (when)              = end
redata: Write Voronoi charges (when)                = end
redata: Write spin charge (when)                    = none
redata: Matel table size (NRTAB)                    =     1024
redata: Mesh Cutoff                                 =   300.0000 Ry
redata: Net charge of the system                    =     0.0000 |e|
redata: Min. number of SCF Iter                     =        0
redata: Max. number of SCF Iter                     =      200
redata: SCF convergence failure will abort job
redata: SCF mix quantity                            = Hamiltonian
redata: Mix DM or H after convergence               =   F
redata: Recompute H after scf cycle                 =   F
redata: Mix DM in first SCF step                    =   T
redata: Write Pulay info on disk                    =   F
redata: New DM Occupancy tolerance                  = 0.000000000001
redata: No kicks to SCF
redata: DM Mixing Weight for Kicks                  =     0.5000
redata: Require Harris convergence for SCF          =   F
redata: Harris energy tolerance for SCF             =     0.000100 eV
redata: Require DM convergence for SCF              =   T
redata: DM tolerance for SCF                        =     0.000005
redata: Require EDM convergence for SCF             =   F
redata: EDM tolerance for SCF                       =     0.001000 eV
redata: Require H convergence for SCF               =   T
redata: Hamiltonian tolerance for SCF               =     0.000050 eV
redata: Require (free) Energy convergence for SCF   =   F
redata: (free) Energy tolerance for SCF             =     0.000100 eV
redata: Using DFT-D3 dispersion                     =   F
redata: Using Saved Data (generic)                  =   F
redata: Use continuation files for DM               =   T
redata: Neglect nonoverlap interactions             =   F
redata: Method of Calculation                       = Diagonalization
redata: Electronic Temperature                      =   300.0000 K
redata: Fix the spin of the system                  =   F
redata: Max. number of TDED Iter                    =        1
redata: Number of TDED substeps                     =        3
redata: Dynamics option                             = Single-point calculation
mix.SCF: Pulay mixing                            = Pulay
mix.SCF:    Variant                              = stable
mix.SCF:    History steps                        = 9
mix.SCF:    Linear mixing weight                 =     0.150000
mix.SCF:    Mixing weight                        =     0.150000
mix.SCF:    SVD condition                        = 0.1000E-07
mix.SCF:    Restart steps                        = 9
mix.SCF:    Restart save steps                   = 1
mix.SCF:    Number of mixing iterations          = 9
mix.SCF:    Following mixer                      = Linear-Kick
mix.SCF: Linear mixing                           = Linear-Kick
mix.SCF:    Mixing weight                        =     0.500000
mix.SCF:    Number of mixing iterations          = 1
mix.SCF:    Following mixer                      = Pulay
redata: Save all siesta data in one NC              =   F
redata: ***********************************************************************

%block SCF.Mixers
  Pulay
  Linear-Kick
%endblock SCF.Mixers

%block SCF.Mixer.Pulay
  # Mixing method
  method pulay
  variant stable

  # Mixing options
  weight 0.1500
  weight.linear 0.1500
  history 9
  restart 9
  restart.save 1

  # Continuation options
  iterations 9
  next Linear-Kick
%endblock SCF.Mixer.Pulay

%block SCF.Mixer.Linear-Kick
  # Mixing method
  method linear

  # Mixing options
  weight 0.5000

  # Continuation options
  iterations 1
  next Pulay
%endblock SCF.Mixer.Linear-Kick

DM_history_depth set to one: no extrapolation allowed by default for geometry relaxation
Size of DM history Fstack: 1
Total number of electrons:     8.000000
Total ionic charge:     8.000000

siesta: k-grid: Number of k-points = 1
siesta: k-point is Gamma-only

diag: Algorithm                                     = D&C
diag: Used triangular part                          = Lower
diag: Absolute tolerance                            =  0.100E-15
diag: Orthogonalization factor                      =  0.100E-05
diag: Memory factor                                 =  1.0000


ts: **************************************************************
ts: Save H and S matrices                           =    F
ts: Save DM and EDM matrices                        =    F
ts: Only save the overlap matrix S                  =    F
ts: **************************************************************

************************ Begin: TS CHECKS AND WARNINGS ************************
************************ End: TS CHECKS AND WARNINGS **************************


                     ====================================
                        Single-point calculation
                     ====================================

outcoor: Atomic coordinates (Ang):                          
    0.00000000    0.00000000    0.00000000   1       1  C
    1.40000000    0.00000000    0.00000000   1       2  C

outcell: Unit cell vectors (Ang):
       10.000000    0.000000    0.000000
        0.000000   10.000000    0.000000
        0.000000    0.000000   10.000000

outcell: Cell vector modules (Ang)   :   10.000000   10.000000   10.000000
outcell: Cell angles (23,13,12) (deg):     90.0000     90.0000     90.0000
outcell: Cell volume (Ang**3)        :   1000.0000
<dSpData1D:S at geom step 0
  <sparsity:sparsity for geom step 0
    nrows_g=26 nrows=26 sparsity=1.0000 nnzs=676, refcount: 7>
  <dData1D:(new from dSpData1D) n=676, refcount: 1>
refcount: 1>
new_DM -- step:     1
Initializing Density Matrix...

Attempting to read DM from file... Failed...
DM filled with atomic data:
<dSpData2D:DM initialized from atoms
  <sparsity:sparsity for geom step 0
    nrows_g=26 nrows=26 sparsity=1.0000 nnzs=676, refcount: 8>
  <dData2D:DM n=676 m=1, refcount: 1>
refcount: 1>
No. of atoms with KB's overlaping orbs in proc 0. Max # of overlaps:       2      26

InitMesh: MESH = 108 x 108 x 108 = 1259712
InitMesh: Mesh cutoff (required, used) =   300.000   322.366 Ry
New grid distribution [1]: sub = 2

stepf: Fermi-Dirac step function

siesta: Program's energy decomposition (eV):
siesta: Ebs     =       -80.836950
siesta: Eions   =       522.735435
siesta: Ena     =       125.974187
siesta: Ekin    =       182.521895
siesta: Enl     =        -5.663274
siesta: Eso     =         0.000000
siesta: Edftu   =         0.000000
siesta: DEna    =         3.692903
siesta: DUscf   =         1.178880
siesta: DUext   =         0.000000
siesta: Ex      =       -76.752586
siesta: Ec      =        -7.374776
siesta: Exc     =       -84.127362
siesta: EbV     =         0.000000
siesta: eta*DQ  =         0.000000
siesta: Emadel  =         0.000000
siesta: Emeta   =         0.000000
siesta: Emolmec =         0.000000
siesta: Ekinion =         0.000000
siesta: Eharris =      -300.606494
siesta: Etot    =      -299.158205
siesta: FreeEng =      -299.159632

        iscf     Eharris(eV)        E_KS(eV)     FreeEng(eV)     dDmax    Ef(eV) dHmax(eV)
   scf:    1     -300.606494     -299.158205     -299.159632  1.261800 -7.147709  1.496839
timer: Routine,Calls,Time,% = IterSCF        1       0.441  20.89
   scf:    2     -299.549540     -299.368438     -299.396612  0.051396 -7.109716  0.969739
   scf:    3     -294.783326     -298.313180     -298.385357  0.532488 -6.986772  1.800178
   scf:    4     -298.792286     -298.559353     -298.642340  0.027360 -7.039877  1.502408
   scf:    5     -297.963827     -298.270451     -298.342168  0.028129 -6.951957  1.899753
   scf:    6     -296.450778     -298.977213     -298.977213  0.580143 -7.018952  1.881438
   scf:    7     -298.657569     -298.819233     -298.819233  0.013949 -6.945905  2.175143
   scf:    8     -299.584163     -299.223176     -299.223337  0.027480 -6.890550  1.193693
   scf:    9     -299.520651     -299.382219     -299.400757  0.030606 -6.860637  0.688007
mix: Pulay -- resetting history
mix: switching mixer --> Linear-Kick
   scf:   10     -299.177051     -299.284594     -299.287367  0.028241 -6.941795  1.000586
mix: switching mixer --> Pulay
   scf:   11     -294.342878     -298.247686     -298.319420  0.552281 -6.892919  2.025506
   scf:   12     -299.637010     -299.572310     -299.650627  0.363281 -6.919629  0.307946
   scf:   13     -299.523315     -299.556210     -299.621603  0.050059 -6.781737  0.628488
   scf:   14     -299.580604     -299.570400     -299.642224  0.029761 -7.007634  0.130574
   scf:   15     -299.559728     -299.565535     -299.634460  0.011049 -7.003973  0.178258
   scf:   16     -299.575131     -299.574346     -299.651535  0.033862 -7.052514  0.063387
   scf:   17     -299.557200     -299.568891     -299.651816  0.028226 -7.058777  0.060511
   scf:   18     -299.571637     -299.570316     -299.652534  0.003640 -7.056599  0.046904
   scf:   19     -299.575658     -299.573779     -299.653208  0.014127 -7.062468  0.019165
mix: Pulay -- resetting history
mix: switching mixer --> Linear-Kick
   scf:   20     -299.572359     -299.573131     -299.653365  0.003978 -7.060386  0.003371
mix: switching mixer --> Pulay
   scf:   21     -299.572153     -299.572661     -299.653338  0.002136 -7.061455  0.008550
   scf:   22     -299.573406     -299.573046     -299.653366  0.001768 -7.061785  0.000453
   scf:   23     -299.573046     -299.573046     -299.653366  0.000007 -7.061849  0.000320
   scf:   24     -299.573057     -299.573052     -299.653367  0.000030 -7.061867  0.000140
   scf:   25     -299.573064     -299.573058     -299.653367  0.000031 -7.061830  0.000085
   scf:   26     -299.573053     -299.573056     -299.653367  0.000011 -7.061835  0.000039
   scf:   27     -299.573051     -299.573053     -299.653367  0.000012 -7.061840  0.000008
mix: Pulay -- inversion failed, > SVD [rank/size] 4 / 7
   scf:   28     -299.573054     -299.573054     -299.653367  0.000002 -7.061839  0.000000

SCF Convergence by DM+H criterion
max |DM_out - DM_in|         :     0.0000020078
max |H_out - H_in|      (eV) :     0.0000001946
SCF cycle converged after 28 iterations

Using DM_out to compute the final energy and forces
No. of atoms with KB's overlaping orbs in proc 0. Max # of overlaps:       2      26

siesta: E_KS(eV) =             -299.5731

siesta: E_KS - E_eggbox =      -299.5731

siesta: Atomic forces (eV/Ang):
     1    4.357761    0.000000   -0.000000
     2   -4.359415   -0.000000    0.000000
----------------------------------------
   Tot   -0.001653   -0.000000   -0.000000
----------------------------------------
   Max    4.359415
   Res    2.516432    sqrt( Sum f_i^2 / 3N )
----------------------------------------
   Max    4.359415    constrained

Stress tensor Voigt[x,y,z,yz,xz,xy] (kbar):        9.78        0.00        0.00        0.00       -0.00        0.00
(Free)E + p*V (eV/cell)     -301.6894
Target enthalpy (eV/cell)     -299.6534

mulliken: Atomic and Orbital Populations:

Species: C                   
Atom  Qatom  Qorb
               2s      2s      2py     2pz     2px     2py     2pz     2px     
               3Pdxy   3Pdyz   3Pdz2   3Pdxz   3Pdx2-y2
   1  4.000   1.253   0.228   0.696   0.696   0.751   0.117   0.117   0.089
              0.016   0.000   0.005   0.016   0.015
   2  4.000   1.253   0.228   0.696   0.696   0.751   0.117   0.117   0.089
              0.016   0.000   0.005   0.016   0.015

mulliken: Qtot =        8.000

Mulliken Atomic Populations:
Atom #   charge [q] valence [e]  Species
     1    -0.000012    4.000012  C
     2     0.000012    3.999988  C
--------------------
 Total    -0.000000

coxmol: Writing XMOL coordinates into file dimer_distance.xyz                                                                                                                                                                                                                  

siesta: Program's energy decomposition (eV):
siesta: Ebs     =       -85.328472
siesta: Eions   =       522.735435
siesta: Ena     =       125.974187
siesta: Ekin    =       184.312976
siesta: Enl     =        -5.431246
siesta: Eso     =         0.000000
siesta: Edftu   =         0.000000
siesta: DEna    =         2.201039
siesta: DUscf   =         0.105518
siesta: DUext   =         0.000000
siesta: Ex      =       -76.651670
siesta: Ec      =        -7.348423
siesta: Exc     =       -84.000093
siesta: EbV     =         0.000000
siesta: eta*DQ  =         0.000000
siesta: Emadel  =         0.000000
siesta: Emeta   =         0.000000
siesta: Emolmec =         0.000000
siesta: Ekinion =         0.000000
siesta: Eharris =      -299.573054
siesta: Etot    =      -299.573054
siesta: FreeEng =      -299.653367

siesta: Final energy (eV):
siesta:  Band Struct. =     -85.328472
siesta:       Kinetic =     184.312976
siesta:       Hartree =     275.581886
siesta:         Edftu =       0.000000
siesta:       Eso     =       0.000000
siesta:    Ext. field =       0.000000
siesta:         Exch. =     -76.651670
siesta:         Corr. =      -7.348423
siesta:     Bulk bias =       0.000000
siesta:   Exch.-corr. =     -84.000093
siesta:  Ion-electron =    -711.942672
siesta:       Ion-ion =      36.474850
siesta:       Ekinion =       0.000000
siesta: D3 dispersion =       0.000000
siesta:         Total =    -299.573054
siesta:         Fermi =      -7.061839

siesta: Atomic forces (eV/Ang):
siesta:      1    4.357761    0.000000   -0.000000
siesta:      2   -4.359415   -0.000000    0.000000
siesta: ----------------------------------------
siesta:    Tot   -0.001653   -0.000000   -0.000000

siesta: Stress tensor (static) (eV/Ang**3):
siesta:     0.006106    0.000000   -0.000000
siesta:     0.000000    0.000001    0.000000
siesta:    -0.000000    0.000000    0.000001

siesta: Cell volume =       1000.000000 Ang**3

siesta: Pressure (static):
siesta:                Solid            Molecule  Units
siesta:          -0.00002218         -0.00000002  Ry/Bohr**3
siesta:          -0.00203602         -0.00000201  eV/Ang**3
siesta:          -3.26205772         -0.00321803  kBar
(Free)E+ p_basis*V_orbitals  =        -298.893962
(Free)Eharris+ p_basis*V_orbitals  =        -298.893962

mulliken: Atomic and Orbital Populations:

Species: C                   
Atom  Qatom  Qorb
               2s      2s      2py     2pz     2px     2py     2pz     2px     
               3Pdxy   3Pdyz   3Pdz2   3Pdxz   3Pdx2-y2
   1  4.000   1.253   0.228   0.696   0.696   0.751   0.117   0.117   0.089
              0.016   0.000   0.005   0.016   0.015
   2  4.000   1.253   0.228   0.696   0.696   0.751   0.117   0.117   0.089
              0.016   0.000   0.005   0.016   0.015

mulliken: Qtot =        8.000

Mulliken Atomic Populations:
Atom #   charge [q] valence [e]  Species
     1    -0.000012    4.000012  C
     2     0.000012    3.999988  C
--------------------
 Total    -0.000000

siesta: Electric dipole (a.u.)  =   -0.000012    0.000000   -0.000000
siesta: Electric dipole (Debye) =   -0.000031    0.000000   -0.000000

Hirshfeld Atomic Populations:
Atom #   charge [q] valence [e]  Species
     1     0.000000    4.000000  C
     2    -0.000001    4.000001  C
--------------------
 Total    -0.000000

Voronoi Atomic Populations:
Atom #   charge [q] valence [e]  Species
     1     0.001805    3.998195  C
     2    -0.001805    4.001805  C
--------------------
 Total    -0.000000

cite: Please indicate the Siesta version in published work: 5.2.2
cite: This calculation has made use of features in the following articles
cite: which we encourage you to cite in published work.
cite: (Please see "dimer_distance.bib" for a BibTeX file.)
        Primary SIESTA paper
          DOI: www.doi.org/10.1088/0953-8984/14/11/302


timer: Elapsed wall time (sec) =      16.589
timer: CPU execution times (sec):

Routine            Calls   Time/call    Tot.time        %
siesta                 1      16.307      16.307   100.00
Setup                  1       0.140       0.140     0.86
bands                  1       0.000       0.000     0.00
KSV_init               1       0.000       0.000     0.00
IterGeom               1      15.430      15.430    94.62
geom_init              1       1.530       1.530     9.38
state_init             1       0.117       0.117     0.72
hsparse                1       0.000       0.000     0.00
overlap                1       0.116       0.116     0.71
Setup_H0               1       0.985       0.985     6.04
naefs                  2       0.000       0.000     0.00
dnaefs                 2       0.000       0.000     0.00
MolMec                 2       0.000       0.000     0.00
kinefsm                2       0.056       0.112     0.68
nlefsm                 2       0.217       0.434     2.66
DHSCF_Init             1       0.441       0.441     2.71
DHSCF1                 1       0.043       0.043     0.26
InitMesh               1       0.043       0.043     0.26
INITMESH               1       0.000       0.000     0.00
DHSCF2                 1       0.398       0.398     2.44
REMESH                 1       0.016       0.016     0.10
REORD                 71       0.003       0.218     1.34
PHION                  1       0.229       0.229     1.41
COMM_BSC             128       0.002       0.273     1.68
POISON                32       0.103       3.312    20.31
fft                   64       0.035       2.220    13.61
setup_H               29       0.466      13.515    82.88
DHSCF                 31       0.482      14.944    91.64
DHSCF3                31       0.472      14.631    89.72
rhoofd                31       0.037       1.152     7.07
XC                    31       0.254       7.887    48.37
GXC-CellXC            31       0.244       7.569    46.42
gridxc@cellXC         31       0.244       7.569    46.42
vmat                  30       0.027       0.807     4.95
IterSCF               28       0.468      13.114    80.42
compute_dm            28       0.000       0.011     0.07
diagon                28       0.000       0.010     0.06
r-eigvec              28       0.000       0.008     0.05
r-buildHS             28       0.000       0.000     0.00
rdiag                 28       0.000       0.007     0.04
rdiag1                28       0.000       0.001     0.00
rdiag2                28       0.000       0.001     0.00
rdiag3                28       0.000       0.005     0.03
rdiag4                28       0.000       0.001     0.00
r-buildD              28       0.000       0.001     0.01
MIXER                 27       0.000       0.002     0.01
PostSCF                1       0.784       0.784     4.81
FINAL_HF               1       0.784       0.784     4.81
DHSCF4                 1       0.313       0.313     1.92
dfscf                  1       0.265       0.265     1.63
overfsm                1       0.001       0.001     0.00
writeHSX               1       0.000       0.000     0.00
state_analysis         1       0.001       0.001     0.01
siesta_move            1       0.000       0.000     0.00
Analysis               1       0.735       0.735     4.50
optical                1       0.000       0.000     0.00
partial-charges        1       0.290       0.290     1.78
  

>> End of run:  28-MAR-2025  16:10:15
Job completed
