Executable      : siesta
Version         : 5.2.2
Architecture    : x86_64
Compiler version: GNU-13.3.0
Compiler flags  : -march=nocona -mtune=haswell -ftree-vectorize -fPIC -fstack-protector-strong -fno-plt -O2 -ffunction-sections -pipe -isystem <prefix>/include -I<prefix>/_build_env/include -fdebug-prefix-map=<prefix>/work=/usr/local/src/conda/siesta-5.2.2 -fdebug-prefix-map=<prefix>=/usr/local/src/conda-prefix -I<prefix>/lib -fallow-argument-mismatch -O3
Parallelisations: none
NetCDF support
NetCDF-4 support
Lua support
DFT-D3 support

Runtime information:
* Directory : /v/rconte1/dimer/distance2/runs/run012
* Running in serial mode.
>> Start of run:  28-MAR-2025  16:08:10

                           *********************** 
                           *  WELCOME TO SIESTA  * 
                           *********************** 

 NOTE: Siesta V5 introduces some new defaults for basis-set generation
 NOTE: which might lead to slightly different numerical results.
 NOTE: Please see the manual for full details and compatibility measures.


reinit: Reading from standard input
reinit: Dumping input in INPUT_TMP.15801
************************** Dump of input data file ****************************
#DON'T FORGET TO PUT THE .PSF FILE TO THE SAME DIRECTORY
SystemName          Dimer of Carbon                     # Name of the system we want to investigate
SystemLabel         dimer_distance                           # name of output files
NumberOfAtoms       2                                # how many number in the unit cell? Dimer -> 2 atoms
NumberOfSpecies     1                                # how many different type of atoms? Dimer -> 1
%block ChemicalSpeciesLabel
 1  6  C        # Species index, atomic number, species label
%endblock ChemicalSpeciesLabel
# ----------------------
# STRUCTURAL INFORMATION
# ----------------------
LatticeConstant     1.0 Ang
%block LatticeVectors
   10.000000    0.000000    0.000000
    0.000000   10.000000    0.000000
    0.000000    0.000000   10.000000
%endblock LatticeVectors
AtomicCoordinatesFormat Ang
%block AtomicCoordinatesAndAtomicSpecies
    0.000000     0.000000     0.000000   1
    1.240     0.000000     0.000000   1
%endblock AtomicCoordinatesAndAtomicSpecies
# --
# XC
# --
xc.functional	        GGA	
xc.authors		PBE	
# ----
# GRID
# ----
# MeshCutoff 		200. Ry
# ---------------
# Solution Method
# ---------------
SolutionMethod		diagon
ElectronicTemperature	300 K	
# ---
# SCF
# ---
SCF.DM.Tolerance         5.E-6
SCF.H.Tolerance          5.E-5 eV
SCF.Mix                  Hamiltonian
# SCF.Mix.Spin             all
SCF.Mixer.Method         Pulay
SCF.Mixer.Weight         0.15
SCF.Mixer.Kick           10
SCF.Mixer.History        20
MaxSCFIterations	     200
DM.UseSaveDM	     	 T
SaveHS                   T
# --------------
# OUTPUT OPTIONS
# --------------
WriteEigenvalues       F
WriteForces            T
WriteCoorStep          T
WriteCoorXmol          T     # generate the .xyz file 
WriteMDXmol            T     # generate the .ani file 
WriteMullikenPop       1
Write.HirshfeldPop     T
Write.VoronoiPop       T
Write.DM.NetCDF        T
Write.DMHS.NetCDF      T
************************** End of input data file *****************************

reinit: -----------------------------------------------------------------------
reinit: System Name: Dimer of Carbon
reinit: -----------------------------------------------------------------------
reinit: System Label: dimer_distance
reinit: -----------------------------------------------------------------------

initatom: Reading input for the pseudopotentials and atomic orbitals ----------
Species number:   1 Atomic number:    6 Label: C

Ground state valence configuration (from tables):   2s02  2p02  3d00  4f00

---- Processing specs for species: C
Reading pseudopotential information in formatted form from:
  C.psf

---- Pseudopotential check for  C

Pseudized shells:
2s( 2.00) rc: 1.56
2p( 2.00) rc: 1.56
3d( 0.00) rc: 1.56
4f( 0.00) rc: 1.56
Valence configuration for ps generation: (assumed as above)
For C, standard SIESTA heuristics set lmxkb to 3
 (one more than the basis l, including polarization orbitals).
Use PS.lmax or PS.KBprojectors blocks to override.

<basis_specs>
===============================================================================
C                    Z=   6    Mass=  12.011        Charge= 0.17977+309
Lmxo=2 Lmxkb= 3    BasisType=split      Semic=F
L=0  Nsemic=0  Cnfigmx=2
          i=1  nzeta=2  polorb=0  (2s)
            splnorm:   0.15000    
               vcte:    40.000    
               rinn:  -0.90000    
               qcoe:    0.0000    
               qyuk:    0.0000    
               qwid:   0.10000E-01
                rcs:    0.0000      0.0000    
            lambdas:    1.0000      1.0000    
L=1  Nsemic=0  Cnfigmx=2
          i=1  nzeta=2  polorb=1  (2p)  (to be polarized perturbatively)
            splnorm:   0.15000    
               vcte:    40.000    
               rinn:  -0.90000    
               qcoe:    0.0000    
               qyuk:    0.0000    
               qwid:   0.10000E-01
                rcs:    0.0000      0.0000    
            lambdas:    1.0000      1.0000    
L=2  Nsemic=0  Cnfigmx=3
          i=1  nzeta=0  polorb=0  (3d)  (perturbative polarization orbital) (from 2p)
-------------------------------------------------------------------------------
L=0  Nkbl=1  erefs: 0.17977+309
L=1  Nkbl=1  erefs: 0.17977+309
L=2  Nkbl=1  erefs: 0.17977+309
L=3  Nkbl=1  erefs: 0.17977+309
===============================================================================
</basis_specs>

Using PAO.SplitTailNorm
atom: Called for C                     (Z =   6)
Maximum radius (at nrval) set to   50.00000 8518

read_vps: Pseudopotential generation method:
read_vps: ATM 3.2.2 Troullier-Martins                       
Valence charge in pseudo generation:    4.00000

xc_check: Exchange-correlation functional:
xc_check: GGA Perdew, Burke & Ernzerhof 1996
V l=0 = -2*Zval/r beyond r=  1.5347
V l=1 = -2*Zval/r beyond r=  1.5332
V l=2 = -2*Zval/r beyond r=  1.5347
V l=3 = -2*Zval/r beyond r=  1.5347
All V_l potentials equal beyond r=  1.4890
This should be close to max(r_c) in ps generation
All pots = -2*Zval/r beyond r=  1.5347
Using small-core scheme (local charge) for Vlocal

VLOCAL_FROM_CHLOCAL: 99.0% of the norm of Vloc inside     19.577 Ry
VLOCAL_FROM_CHLOCAL: 99.9% of the norm of Vloc inside     44.617 Ry
atom: Maximum radius for chlocal:    1.77931
atom: Maximum radius for r*vlocal+2*Zval:    1.63022

KBgen: Kleinman-Bylander projectors: 
GHOST: No ghost state for L =  0
   l= 0   rc=  1.646704   el= -1.010689   Ekb=  5.277734   kbcos=  0.315993
GHOST: No ghost state for L =  1
   l= 1   rc=  1.648361   el= -0.388490   Ekb= -4.115733   kbcos= -0.351483
GHOST: No ghost state for L =  2
   l= 2   rc=  1.735131   el=  0.012917   Ekb= -1.012311   kbcos= -0.009283
GHOST: No ghost state for L =  3
   l= 3   rc=  1.777521   el=  0.019225   Ekb= -0.424772   kbcos= -0.001204

KBgen: Total number of Kleinman-Bylander projectors:  16
atom: -------------------------------------------------------------------------

atom: SANKEY-TYPE ORBITALS:
atom: Selected multiple-zeta basis: split     

SPLIT: Orbitals with angular momentum L= 0

SPLIT: Basis orbitals for state 2s

SPLIT: PAO cut-off radius determined from an
SPLIT: energy shift=  0.010000 Ry
Split based on tail norm

   izeta = 1
                 lambda =    1.000000
                     rc =    4.484389
                 energy =   -0.999400
                kinetic =    0.879719
    potential(screened) =   -1.879119
       potential(ionic) =   -5.474723

   izeta = 2
                 rmatch =    3.048210
              splitnorm =    0.150000
                 energy =   -0.737057
                kinetic =    1.553917
    potential(screened) =   -2.290974
       potential(ionic) =   -6.191799

SPLIT: Orbitals with angular momentum L= 1

SPLIT: Basis orbitals for state 2p

SPLIT: PAO cut-off radius determined from an
SPLIT: energy shift=  0.010000 Ry
Split based on tail norm

   izeta = 1
                 lambda =    1.000000
                     rc =    5.435719
                 energy =   -0.377283
                kinetic =    2.459011
    potential(screened) =   -2.836294
       potential(ionic) =   -6.303833

   izeta = 2
                 rmatch =    3.691839
              splitnorm =    0.150000
                 energy =   -0.247686
                kinetic =    3.567780
    potential(screened) =   -3.815466
       potential(ionic) =   -7.634895

POLgen: Perturbative polarization orbital with L=  2

POLgen: Polarization orbital for state 2p
Split based on tail norm

   izeta = 1
                     rc =    5.435719
                 energy =    1.173953
                kinetic =    2.358612
    potential(screened) =   -1.184659
       potential(ionic) =   -4.054396
atom: Total number of Sankey-type orbitals: 13

atm_pop: Valence configuration (for local Pseudopot. screening):
 2s( 2.00)                                                            
 2p( 2.00)                                                            
 3d( 0.00)                                                            
Vna: chval, zval:    4.00000   4.00000

Vna:  Cut-off radius for the neutral-atom potential:   5.435719

atom: _________________________________________________________________________

prinput: Basis input 

PAO.BasisType split     

%block ChemicalSpeciesLabel
    1    6 C                       # Species index, atomic number, species label
%endblock ChemicalSpeciesLabel

%block PAO.Basis                 # Define Basis set
# WARNING: This information might be incomplete!
C                     2                    # Species label, number of l-shells
 n=2   0   2                         # n, l, Nzeta 
   4.484      3.048   
   1.000      1.000   
 n=2   1   2 P   1                   # n, l, Nzeta, Polarization, NzetaPol
   5.436      3.692   
   1.000      1.000   
%endblock PAO.Basis

prinput: ----------------------------------------------------------------------

Dumping basis to NetCDF file C.ion.nc
coor:   Atomic-coordinates input format  =     Cartesian coordinates
coor:                                          (in Angstroms)

siesta: Atomic coordinates (Bohr) and species
siesta:      0.00000   0.00000   0.00000  1        1
siesta:      2.34326   0.00000   0.00000  1        2

siesta: System type = molecule  

initatomlists: Number of atoms, orbitals, and projectors:      2    26    32

coxmol: Writing XMOL coordinates into file dimer_distance.xyz                                                                                                                                                                                                                  

siesta: ******************** Simulation parameters ****************************
siesta:
siesta: The following are some of the parameters of the simulation.
siesta: A complete list of the parameters used, including default values,
siesta: can be found in file out.fdf
siesta:
redata: Spin configuration                          = none
redata: Number of spin components                   = 1
redata: Time-Reversal Symmetry                      = T
redata: Spin spiral                                 = F
redata: Long output                                 =   F
redata: Number of Atomic Species                    =        1
redata: Charge density info will appear in .RHO file
redata: Write Mulliken charges (when)               = geometry+end
redata: Write Mulliken Pop.                         = Atomic and Orbital charges
redata: Write Hirshfeld charges (when)              = end
redata: Write Voronoi charges (when)                = end
redata: Write spin charge (when)                    = none
redata: Matel table size (NRTAB)                    =     1024
redata: Mesh Cutoff                                 =   300.0000 Ry
redata: Net charge of the system                    =     0.0000 |e|
redata: Min. number of SCF Iter                     =        0
redata: Max. number of SCF Iter                     =      200
redata: SCF convergence failure will abort job
redata: SCF mix quantity                            = Hamiltonian
redata: Mix DM or H after convergence               =   F
redata: Recompute H after scf cycle                 =   F
redata: Mix DM in first SCF step                    =   T
redata: Write Pulay info on disk                    =   F
redata: New DM Occupancy tolerance                  = 0.000000000001
redata: No kicks to SCF
redata: DM Mixing Weight for Kicks                  =     0.5000
redata: Require Harris convergence for SCF          =   F
redata: Harris energy tolerance for SCF             =     0.000100 eV
redata: Require DM convergence for SCF              =   T
redata: DM tolerance for SCF                        =     0.000005
redata: Require EDM convergence for SCF             =   F
redata: EDM tolerance for SCF                       =     0.001000 eV
redata: Require H convergence for SCF               =   T
redata: Hamiltonian tolerance for SCF               =     0.000050 eV
redata: Require (free) Energy convergence for SCF   =   F
redata: (free) Energy tolerance for SCF             =     0.000100 eV
redata: Using DFT-D3 dispersion                     =   F
redata: Using Saved Data (generic)                  =   F
redata: Use continuation files for DM               =   T
redata: Neglect nonoverlap interactions             =   F
redata: Method of Calculation                       = Diagonalization
redata: Electronic Temperature                      =   300.0000 K
redata: Fix the spin of the system                  =   F
redata: Max. number of TDED Iter                    =        1
redata: Number of TDED substeps                     =        3
redata: Dynamics option                             = Single-point calculation
mix.SCF: Pulay mixing                            = Pulay
mix.SCF:    Variant                              = stable
mix.SCF:    History steps                        = 9
mix.SCF:    Linear mixing weight                 =     0.150000
mix.SCF:    Mixing weight                        =     0.150000
mix.SCF:    SVD condition                        = 0.1000E-07
mix.SCF:    Restart steps                        = 9
mix.SCF:    Restart save steps                   = 1
mix.SCF:    Number of mixing iterations          = 9
mix.SCF:    Following mixer                      = Linear-Kick
mix.SCF: Linear mixing                           = Linear-Kick
mix.SCF:    Mixing weight                        =     0.500000
mix.SCF:    Number of mixing iterations          = 1
mix.SCF:    Following mixer                      = Pulay
redata: Save all siesta data in one NC              =   F
redata: ***********************************************************************

%block SCF.Mixers
  Pulay
  Linear-Kick
%endblock SCF.Mixers

%block SCF.Mixer.Pulay
  # Mixing method
  method pulay
  variant stable

  # Mixing options
  weight 0.1500
  weight.linear 0.1500
  history 9
  restart 9
  restart.save 1

  # Continuation options
  iterations 9
  next Linear-Kick
%endblock SCF.Mixer.Pulay

%block SCF.Mixer.Linear-Kick
  # Mixing method
  method linear

  # Mixing options
  weight 0.5000

  # Continuation options
  iterations 1
  next Pulay
%endblock SCF.Mixer.Linear-Kick

DM_history_depth set to one: no extrapolation allowed by default for geometry relaxation
Size of DM history Fstack: 1
Total number of electrons:     8.000000
Total ionic charge:     8.000000

siesta: k-grid: Number of k-points = 1
siesta: k-point is Gamma-only

diag: Algorithm                                     = D&C
diag: Used triangular part                          = Lower
diag: Absolute tolerance                            =  0.100E-15
diag: Orthogonalization factor                      =  0.100E-05
diag: Memory factor                                 =  1.0000


ts: **************************************************************
ts: Save H and S matrices                           =    F
ts: Save DM and EDM matrices                        =    F
ts: Only save the overlap matrix S                  =    F
ts: **************************************************************

************************ Begin: TS CHECKS AND WARNINGS ************************
************************ End: TS CHECKS AND WARNINGS **************************


                     ====================================
                        Single-point calculation
                     ====================================

outcoor: Atomic coordinates (Ang):                          
    0.00000000    0.00000000    0.00000000   1       1  C
    1.24000000    0.00000000    0.00000000   1       2  C

outcell: Unit cell vectors (Ang):
       10.000000    0.000000    0.000000
        0.000000   10.000000    0.000000
        0.000000    0.000000   10.000000

outcell: Cell vector modules (Ang)   :   10.000000   10.000000   10.000000
outcell: Cell angles (23,13,12) (deg):     90.0000     90.0000     90.0000
outcell: Cell volume (Ang**3)        :   1000.0000
<dSpData1D:S at geom step 0
  <sparsity:sparsity for geom step 0
    nrows_g=26 nrows=26 sparsity=1.0000 nnzs=676, refcount: 7>
  <dData1D:(new from dSpData1D) n=676, refcount: 1>
refcount: 1>
new_DM -- step:     1
Initializing Density Matrix...

Attempting to read DM from file... Failed...
DM filled with atomic data:
<dSpData2D:DM initialized from atoms
  <sparsity:sparsity for geom step 0
    nrows_g=26 nrows=26 sparsity=1.0000 nnzs=676, refcount: 8>
  <dData2D:DM n=676 m=1, refcount: 1>
refcount: 1>
No. of atoms with KB's overlaping orbs in proc 0. Max # of overlaps:       2      26

InitMesh: MESH = 108 x 108 x 108 = 1259712
InitMesh: Mesh cutoff (required, used) =   300.000   322.366 Ry
New grid distribution [1]: sub = 2

stepf: Fermi-Dirac step function

siesta: Program's energy decomposition (eV):
siesta: Ebs     =       -78.853709
siesta: Eions   =       522.735435
siesta: Ena     =       125.308892
siesta: Ekin    =       196.522038
siesta: Enl     =        -8.673835
siesta: Eso     =         0.000000
siesta: Edftu   =         0.000000
siesta: DEna    =        -3.626830
siesta: DUscf   =         1.692172
siesta: DUext   =         0.000000
siesta: Ex      =       -80.259268
siesta: Ec      =        -7.591967
siesta: Exc     =       -87.851235
siesta: EbV     =         0.000000
siesta: eta*DQ  =         0.000000
siesta: Emadel  =         0.000000
siesta: Emeta   =         0.000000
siesta: Emolmec =         0.000000
siesta: Ekinion =         0.000000
siesta: Eharris =      -299.971295
siesta: Etot    =      -299.364233
siesta: FreeEng =      -299.364233

        iscf     Eharris(eV)        E_KS(eV)     FreeEng(eV)     dDmax    Ef(eV) dHmax(eV)
   scf:    1     -299.971295     -299.364233     -299.364233  1.527889 -8.064006  2.197273
timer: Routine,Calls,Time,% = IterSCF        1       0.424  19.77
   scf:    2     -299.749263     -299.562728     -299.562728  0.018861 -7.855947  1.609954
   scf:    3     -299.919047     -299.815647     -299.838597  0.092839 -7.308857  0.272842
   scf:    4     -299.801890     -299.814709     -299.821989  0.037637 -7.445287  0.303710
   scf:    5     -299.819745     -299.818605     -299.835849  0.017825 -7.438751  0.155918
   scf:    6     -299.745386     -299.792689     -299.833634  0.055269 -7.386604  0.170280
   scf:    7     -299.764086     -299.779050     -299.824952  0.013940 -7.374113  0.243668
   scf:    8     -299.807126     -299.793873     -299.834223  0.015413 -7.380470  0.168313
   scf:    9     -299.828283     -299.815298     -299.841327  0.035531 -7.409974  0.028207
mix: Pulay -- resetting history
mix: switching mixer --> Linear-Kick
   scf:   10     -299.813084     -299.814216     -299.841541  0.002714 -7.410172  0.014731
mix: switching mixer --> Pulay
   scf:   11     -299.807333     -299.810948     -299.841482  0.007085 -7.409481  0.021933
   scf:   12     -299.815032     -299.813055     -299.841623  0.004376 -7.409973  0.002603
   scf:   13     -299.812077     -299.812569     -299.841620  0.000989 -7.410963  0.003516
   scf:   14     -299.813049     -299.812810     -299.841624  0.000523 -7.410935  0.000840
   scf:   15     -299.813662     -299.813239     -299.841618  0.000945 -7.410818  0.004071
   scf:   16     -299.813441     -299.813340     -299.841614  0.000225 -7.410801  0.005178
   scf:   17     -299.812349     -299.812848     -299.841624  0.001083 -7.410899  0.000128
mix: Pulay -- inversion failed, > SVD [rank/size] 5 / 7
   scf:   18     -299.812872     -299.812860     -299.841624  0.000026 -7.410893  0.000005
mix: Pulay -- inversion failed, > SVD [rank/size] 5 / 8
   scf:   19     -299.812861     -299.812861     -299.841624  0.000001 -7.410893  0.000000

SCF Convergence by DM+H criterion
max |DM_out - DM_in|         :     0.0000009680
max |H_out - H_in|      (eV) :     0.0000002904
SCF cycle converged after 19 iterations

Using DM_out to compute the final energy and forces
No. of atoms with KB's overlaping orbs in proc 0. Max # of overlaps:       2      26

siesta: E_KS(eV) =             -299.8129

siesta: E_KS - E_eggbox =      -299.8129

siesta: Atomic forces (eV/Ang):
     1   -3.434657    0.000000    0.000000
     2    3.434723    0.000000   -0.000000
----------------------------------------
   Tot    0.000066    0.000000   -0.000000
----------------------------------------
   Max    3.434723
   Res    1.983019    sqrt( Sum f_i^2 / 3N )
----------------------------------------
   Max    3.434723    constrained

Stress tensor Voigt[x,y,z,yz,xz,xy] (kbar):       -6.82        0.00        0.00       -0.00        0.00        0.00
(Free)E + p*V (eV/cell)     -298.4227
Target enthalpy (eV/cell)     -299.8416

mulliken: Atomic and Orbital Populations:

Species: C                   
Atom  Qatom  Qorb
               2s      2s      2py     2pz     2px     2py     2pz     2px     
               3Pdxy   3Pdyz   3Pdz2   3Pdxz   3Pdx2-y2
   1  4.000   0.996   0.285   0.734   0.734   0.729   0.213   0.213   0.039
              0.018   0.000   0.005   0.018   0.015
   2  4.000   0.996   0.285   0.734   0.734   0.729   0.213   0.213   0.039
              0.018   0.000   0.005   0.018   0.015

mulliken: Qtot =        8.000

Mulliken Atomic Populations:
Atom #   charge [q] valence [e]  Species
     1    -0.000011    4.000011  C
     2     0.000011    3.999989  C
--------------------
 Total     0.000000

coxmol: Writing XMOL coordinates into file dimer_distance.xyz                                                                                                                                                                                                                  

siesta: Program's energy decomposition (eV):
siesta: Ebs     =       -87.668406
siesta: Eions   =       522.735435
siesta: Ena     =       125.308892
siesta: Ekin    =       191.903077
siesta: Enl     =        -7.765014
siesta: Eso     =         0.000000
siesta: Edftu   =         0.000000
siesta: DEna    =        -0.570093
siesta: DUscf   =         0.558994
siesta: DUext   =         0.000000
siesta: Ex      =       -78.990289
siesta: Ec      =        -7.522993
siesta: Exc     =       -86.513282
siesta: EbV     =         0.000000
siesta: eta*DQ  =         0.000000
siesta: Emadel  =         0.000000
siesta: Emeta   =         0.000000
siesta: Emolmec =         0.000000
siesta: Ekinion =         0.000000
siesta: Eharris =      -299.812861
siesta: Etot    =      -299.812861
siesta: FreeEng =      -299.841624

siesta: Final energy (eV):
siesta:  Band Struct. =     -87.668406
siesta:       Kinetic =     191.903077
siesta:       Hartree =     295.295599
siesta:         Edftu =       0.000000
siesta:       Eso     =       0.000000
siesta:    Ext. field =       0.000000
siesta:         Exch. =     -78.990289
siesta:         Corr. =      -7.522993
siesta:     Bulk bias =       0.000000
siesta:   Exch.-corr. =     -86.513282
siesta:  Ion-electron =    -757.993141
siesta:       Ion-ion =      57.494887
siesta:       Ekinion =       0.000000
siesta: D3 dispersion =       0.000000
siesta:         Total =    -299.812861
siesta:         Fermi =      -7.410893

siesta: Atomic forces (eV/Ang):
siesta:      1   -3.434657    0.000000    0.000000
siesta:      2    3.434723    0.000000   -0.000000
siesta: ----------------------------------------
siesta:    Tot    0.000066    0.000000   -0.000000

siesta: Stress tensor (static) (eV/Ang**3):
siesta:    -0.004259    0.000000    0.000000
siesta:     0.000000    0.000001   -0.000000
siesta:     0.000000   -0.000000    0.000001

siesta: Cell volume =       1000.000000 Ang**3

siesta: Pressure (static):
siesta:                Solid            Molecule  Units
siesta:           0.00001545         -0.00000001  Ry/Bohr**3
siesta:           0.00141890         -0.00000078  eV/Ang**3
siesta:           2.27332304         -0.00124209  kBar
(Free)E+ p_basis*V_orbitals  =        -299.082220
(Free)Eharris+ p_basis*V_orbitals  =        -299.082220

mulliken: Atomic and Orbital Populations:

Species: C                   
Atom  Qatom  Qorb
               2s      2s      2py     2pz     2px     2py     2pz     2px     
               3Pdxy   3Pdyz   3Pdz2   3Pdxz   3Pdx2-y2
   1  4.000   0.996   0.285   0.734   0.734   0.729   0.213   0.213   0.039
              0.018   0.000   0.005   0.018   0.015
   2  4.000   0.996   0.285   0.734   0.734   0.729   0.213   0.213   0.039
              0.018   0.000   0.005   0.018   0.015

mulliken: Qtot =        8.000

Mulliken Atomic Populations:
Atom #   charge [q] valence [e]  Species
     1    -0.000011    4.000011  C
     2     0.000011    3.999989  C
--------------------
 Total     0.000000

siesta: Electric dipole (a.u.)  =   -0.000016    0.000000   -0.000000
siesta: Electric dipole (Debye) =   -0.000042    0.000000   -0.000000

Hirshfeld Atomic Populations:
Atom #   charge [q] valence [e]  Species
     1     0.000002    3.999998  C
     2    -0.000002    4.000002  C
--------------------
 Total    -0.000000

Voronoi Atomic Populations:
Atom #   charge [q] valence [e]  Species
     1     0.007884    3.992116  C
     2    -0.007884    4.007884  C
--------------------
 Total    -0.000000

cite: Please indicate the Siesta version in published work: 5.2.2
cite: This calculation has made use of features in the following articles
cite: which we encourage you to cite in published work.
cite: (Please see "dimer_distance.bib" for a BibTeX file.)
        Primary SIESTA paper
          DOI: www.doi.org/10.1088/0953-8984/14/11/302


timer: Elapsed wall time (sec) =      12.040
timer: CPU execution times (sec):

Routine            Calls   Time/call    Tot.time        %
siesta                 1      11.797      11.797   100.00
Setup                  1       0.138       0.138     1.17
bands                  1       0.000       0.000     0.00
KSV_init               1       0.000       0.000     0.00
IterGeom               1      10.886      10.886    92.28
geom_init              1       1.583       1.583    13.42
state_init             1       0.117       0.117     0.99
hsparse                1       0.000       0.000     0.00
overlap                1       0.115       0.115     0.98
Setup_H0               1       1.002       1.002     8.49
naefs                  2       0.000       0.001     0.00
dnaefs                 2       0.000       0.000     0.00
MolMec                 2       0.000       0.000     0.00
kinefsm                2       0.056       0.113     0.96
nlefsm                 2       0.219       0.439     3.72
DHSCF_Init             1       0.454       0.454     3.85
DHSCF1                 1       0.042       0.042     0.36
InitMesh               1       0.042       0.042     0.36
INITMESH               1       0.000       0.000     0.00
DHSCF2                 1       0.411       0.411     3.49
REMESH                 1       0.015       0.015     0.13
REORD                 53       0.003       0.157     1.33
PHION                  1       0.249       0.249     2.11
COMM_BSC              92       0.002       0.187     1.59
POISON                23       0.100       2.305    19.54
fft                   46       0.034       1.544    13.09
setup_H               20       0.445       8.895    75.40
DHSCF                 22       0.475      10.447    88.56
DHSCF3                22       0.460      10.124    85.82
rhoofd                22       0.036       0.787     6.67
XC                    22       0.245       5.395    45.73
GXC-CellXC            22       0.235       5.172    43.84
gridxc@cellXC         22       0.235       5.172    43.84
vmat                  21       0.026       0.544     4.61
IterSCF               19       0.445       8.447    71.60
compute_dm            19       0.000       0.007     0.06
diagon                19       0.000       0.006     0.05
r-eigvec              19       0.000       0.005     0.04
r-buildHS             19       0.000       0.000     0.00
rdiag                 19       0.000       0.005     0.04
rdiag1                19       0.000       0.000     0.00
rdiag2                19       0.000       0.000     0.00
rdiag3                19       0.000       0.003     0.03
rdiag4                19       0.000       0.000     0.00
r-buildD              19       0.000       0.001     0.01
MIXER                 18       0.000       0.001     0.01
PostSCF                1       0.855       0.855     7.25
FINAL_HF               1       0.855       0.855     7.25
DHSCF4                 1       0.323       0.323     2.74
dfscf                  1       0.274       0.274     2.32
overfsm                1       0.001       0.001     0.01
writeHSX               1       0.000       0.000     0.00
state_analysis         1       0.001       0.001     0.01
siesta_move            1       0.000       0.000     0.00
Analysis               1       0.770       0.770     6.53
optical                1       0.000       0.000     0.00
partial-charges        1       0.313       0.313     2.65
  

>> End of run:  28-MAR-2025  16:08:22
Job completed
