Executable      : siesta
Version         : 5.2.2
Architecture    : x86_64
Compiler version: GNU-13.3.0
Compiler flags  : -march=nocona -mtune=haswell -ftree-vectorize -fPIC -fstack-protector-strong -fno-plt -O2 -ffunction-sections -pipe -isystem <prefix>/include -I<prefix>/_build_env/include -fdebug-prefix-map=<prefix>/work=/usr/local/src/conda/siesta-5.2.2 -fdebug-prefix-map=<prefix>=/usr/local/src/conda-prefix -I<prefix>/lib -fallow-argument-mismatch -O3
Parallelisations: none
NetCDF support
NetCDF-4 support
Lua support
DFT-D3 support

Runtime information:
* Directory : /v/rconte1/dimer/distance2/runs/run041
* Running in serial mode.
>> Start of run:  28-MAR-2025  16:14:46

                           *********************** 
                           *  WELCOME TO SIESTA  * 
                           *********************** 

 NOTE: Siesta V5 introduces some new defaults for basis-set generation
 NOTE: which might lead to slightly different numerical results.
 NOTE: Please see the manual for full details and compatibility measures.


reinit: Reading from standard input
reinit: Dumping input in INPUT_TMP.12372
************************** Dump of input data file ****************************
#DON'T FORGET TO PUT THE .PSF FILE TO THE SAME DIRECTORY
SystemName          Dimer of Carbon                     # Name of the system we want to investigate
SystemLabel         dimer_distance                           # name of output files
NumberOfAtoms       2                                # how many number in the unit cell? Dimer -> 2 atoms
NumberOfSpecies     1                                # how many different type of atoms? Dimer -> 1
%block ChemicalSpeciesLabel
 1  6  C        # Species index, atomic number, species label
%endblock ChemicalSpeciesLabel
# ----------------------
# STRUCTURAL INFORMATION
# ----------------------
LatticeConstant     1.0 Ang
%block LatticeVectors
   10.000000    0.000000    0.000000
    0.000000   10.000000    0.000000
    0.000000    0.000000   10.000000
%endblock LatticeVectors
AtomicCoordinatesFormat Ang
%block AtomicCoordinatesAndAtomicSpecies
    0.000000     0.000000     0.000000   1
    1.820     0.000000     0.000000   1
%endblock AtomicCoordinatesAndAtomicSpecies
# --
# XC
# --
xc.functional	        GGA	
xc.authors		PBE	
# ----
# GRID
# ----
# MeshCutoff 		200. Ry
# ---------------
# Solution Method
# ---------------
SolutionMethod		diagon
ElectronicTemperature	300 K	
# ---
# SCF
# ---
SCF.DM.Tolerance         5.E-6
SCF.H.Tolerance          5.E-5 eV
SCF.Mix                  Hamiltonian
# SCF.Mix.Spin             all
SCF.Mixer.Method         Pulay
SCF.Mixer.Weight         0.15
SCF.Mixer.Kick           10
SCF.Mixer.History        20
MaxSCFIterations	     200
DM.UseSaveDM	     	 T
SaveHS                   T
# --------------
# OUTPUT OPTIONS
# --------------
WriteEigenvalues       F
WriteForces            T
WriteCoorStep          T
WriteCoorXmol          T     # generate the .xyz file 
WriteMDXmol            T     # generate the .ani file 
WriteMullikenPop       1
Write.HirshfeldPop     T
Write.VoronoiPop       T
Write.DM.NetCDF        T
Write.DMHS.NetCDF      T
************************** End of input data file *****************************

reinit: -----------------------------------------------------------------------
reinit: System Name: Dimer of Carbon
reinit: -----------------------------------------------------------------------
reinit: System Label: dimer_distance
reinit: -----------------------------------------------------------------------

initatom: Reading input for the pseudopotentials and atomic orbitals ----------
Species number:   1 Atomic number:    6 Label: C

Ground state valence configuration (from tables):   2s02  2p02  3d00  4f00

---- Processing specs for species: C
Reading pseudopotential information in formatted form from:
  C.psf

---- Pseudopotential check for  C

Pseudized shells:
2s( 2.00) rc: 1.56
2p( 2.00) rc: 1.56
3d( 0.00) rc: 1.56
4f( 0.00) rc: 1.56
Valence configuration for ps generation: (assumed as above)
For C, standard SIESTA heuristics set lmxkb to 3
 (one more than the basis l, including polarization orbitals).
Use PS.lmax or PS.KBprojectors blocks to override.

<basis_specs>
===============================================================================
C                    Z=   6    Mass=  12.011        Charge= 0.17977+309
Lmxo=2 Lmxkb= 3    BasisType=split      Semic=F
L=0  Nsemic=0  Cnfigmx=2
          i=1  nzeta=2  polorb=0  (2s)
            splnorm:   0.15000    
               vcte:    40.000    
               rinn:  -0.90000    
               qcoe:    0.0000    
               qyuk:    0.0000    
               qwid:   0.10000E-01
                rcs:    0.0000      0.0000    
            lambdas:    1.0000      1.0000    
L=1  Nsemic=0  Cnfigmx=2
          i=1  nzeta=2  polorb=1  (2p)  (to be polarized perturbatively)
            splnorm:   0.15000    
               vcte:    40.000    
               rinn:  -0.90000    
               qcoe:    0.0000    
               qyuk:    0.0000    
               qwid:   0.10000E-01
                rcs:    0.0000      0.0000    
            lambdas:    1.0000      1.0000    
L=2  Nsemic=0  Cnfigmx=3
          i=1  nzeta=0  polorb=0  (3d)  (perturbative polarization orbital) (from 2p)
-------------------------------------------------------------------------------
L=0  Nkbl=1  erefs: 0.17977+309
L=1  Nkbl=1  erefs: 0.17977+309
L=2  Nkbl=1  erefs: 0.17977+309
L=3  Nkbl=1  erefs: 0.17977+309
===============================================================================
</basis_specs>

Using PAO.SplitTailNorm
atom: Called for C                     (Z =   6)
Maximum radius (at nrval) set to   50.00000 8518

read_vps: Pseudopotential generation method:
read_vps: ATM 3.2.2 Troullier-Martins                       
Valence charge in pseudo generation:    4.00000

xc_check: Exchange-correlation functional:
xc_check: GGA Perdew, Burke & Ernzerhof 1996
V l=0 = -2*Zval/r beyond r=  1.5347
V l=1 = -2*Zval/r beyond r=  1.5332
V l=2 = -2*Zval/r beyond r=  1.5347
V l=3 = -2*Zval/r beyond r=  1.5347
All V_l potentials equal beyond r=  1.4890
This should be close to max(r_c) in ps generation
All pots = -2*Zval/r beyond r=  1.5347
Using small-core scheme (local charge) for Vlocal

VLOCAL_FROM_CHLOCAL: 99.0% of the norm of Vloc inside     19.577 Ry
VLOCAL_FROM_CHLOCAL: 99.9% of the norm of Vloc inside     44.617 Ry
atom: Maximum radius for chlocal:    1.77931
atom: Maximum radius for r*vlocal+2*Zval:    1.63022

KBgen: Kleinman-Bylander projectors: 
GHOST: No ghost state for L =  0
   l= 0   rc=  1.646704   el= -1.010689   Ekb=  5.277734   kbcos=  0.315993
GHOST: No ghost state for L =  1
   l= 1   rc=  1.648361   el= -0.388490   Ekb= -4.115733   kbcos= -0.351483
GHOST: No ghost state for L =  2
   l= 2   rc=  1.735131   el=  0.012917   Ekb= -1.012311   kbcos= -0.009283
GHOST: No ghost state for L =  3
   l= 3   rc=  1.777521   el=  0.019225   Ekb= -0.424772   kbcos= -0.001204

KBgen: Total number of Kleinman-Bylander projectors:  16
atom: -------------------------------------------------------------------------

atom: SANKEY-TYPE ORBITALS:
atom: Selected multiple-zeta basis: split     

SPLIT: Orbitals with angular momentum L= 0

SPLIT: Basis orbitals for state 2s

SPLIT: PAO cut-off radius determined from an
SPLIT: energy shift=  0.010000 Ry
Split based on tail norm

   izeta = 1
                 lambda =    1.000000
                     rc =    4.484389
                 energy =   -0.999400
                kinetic =    0.879719
    potential(screened) =   -1.879119
       potential(ionic) =   -5.474723

   izeta = 2
                 rmatch =    3.048210
              splitnorm =    0.150000
                 energy =   -0.737057
                kinetic =    1.553917
    potential(screened) =   -2.290974
       potential(ionic) =   -6.191799

SPLIT: Orbitals with angular momentum L= 1

SPLIT: Basis orbitals for state 2p

SPLIT: PAO cut-off radius determined from an
SPLIT: energy shift=  0.010000 Ry
Split based on tail norm

   izeta = 1
                 lambda =    1.000000
                     rc =    5.435719
                 energy =   -0.377283
                kinetic =    2.459011
    potential(screened) =   -2.836294
       potential(ionic) =   -6.303833

   izeta = 2
                 rmatch =    3.691839
              splitnorm =    0.150000
                 energy =   -0.247686
                kinetic =    3.567780
    potential(screened) =   -3.815466
       potential(ionic) =   -7.634895

POLgen: Perturbative polarization orbital with L=  2

POLgen: Polarization orbital for state 2p
Split based on tail norm

   izeta = 1
                     rc =    5.435719
                 energy =    1.173953
                kinetic =    2.358612
    potential(screened) =   -1.184659
       potential(ionic) =   -4.054396
atom: Total number of Sankey-type orbitals: 13

atm_pop: Valence configuration (for local Pseudopot. screening):
 2s( 2.00)                                                            
 2p( 2.00)                                                            
 3d( 0.00)                                                            
Vna: chval, zval:    4.00000   4.00000

Vna:  Cut-off radius for the neutral-atom potential:   5.435719

atom: _________________________________________________________________________

prinput: Basis input 

PAO.BasisType split     

%block ChemicalSpeciesLabel
    1    6 C                       # Species index, atomic number, species label
%endblock ChemicalSpeciesLabel

%block PAO.Basis                 # Define Basis set
# WARNING: This information might be incomplete!
C                     2                    # Species label, number of l-shells
 n=2   0   2                         # n, l, Nzeta 
   4.484      3.048   
   1.000      1.000   
 n=2   1   2 P   1                   # n, l, Nzeta, Polarization, NzetaPol
   5.436      3.692   
   1.000      1.000   
%endblock PAO.Basis

prinput: ----------------------------------------------------------------------

Dumping basis to NetCDF file C.ion.nc
coor:   Atomic-coordinates input format  =     Cartesian coordinates
coor:                                          (in Angstroms)

siesta: Atomic coordinates (Bohr) and species
siesta:      0.00000   0.00000   0.00000  1        1
siesta:      3.43930   0.00000   0.00000  1        2

siesta: System type = molecule  

initatomlists: Number of atoms, orbitals, and projectors:      2    26    32

coxmol: Writing XMOL coordinates into file dimer_distance.xyz                                                                                                                                                                                                                  

siesta: ******************** Simulation parameters ****************************
siesta:
siesta: The following are some of the parameters of the simulation.
siesta: A complete list of the parameters used, including default values,
siesta: can be found in file out.fdf
siesta:
redata: Spin configuration                          = none
redata: Number of spin components                   = 1
redata: Time-Reversal Symmetry                      = T
redata: Spin spiral                                 = F
redata: Long output                                 =   F
redata: Number of Atomic Species                    =        1
redata: Charge density info will appear in .RHO file
redata: Write Mulliken charges (when)               = geometry+end
redata: Write Mulliken Pop.                         = Atomic and Orbital charges
redata: Write Hirshfeld charges (when)              = end
redata: Write Voronoi charges (when)                = end
redata: Write spin charge (when)                    = none
redata: Matel table size (NRTAB)                    =     1024
redata: Mesh Cutoff                                 =   300.0000 Ry
redata: Net charge of the system                    =     0.0000 |e|
redata: Min. number of SCF Iter                     =        0
redata: Max. number of SCF Iter                     =      200
redata: SCF convergence failure will abort job
redata: SCF mix quantity                            = Hamiltonian
redata: Mix DM or H after convergence               =   F
redata: Recompute H after scf cycle                 =   F
redata: Mix DM in first SCF step                    =   T
redata: Write Pulay info on disk                    =   F
redata: New DM Occupancy tolerance                  = 0.000000000001
redata: No kicks to SCF
redata: DM Mixing Weight for Kicks                  =     0.5000
redata: Require Harris convergence for SCF          =   F
redata: Harris energy tolerance for SCF             =     0.000100 eV
redata: Require DM convergence for SCF              =   T
redata: DM tolerance for SCF                        =     0.000005
redata: Require EDM convergence for SCF             =   F
redata: EDM tolerance for SCF                       =     0.001000 eV
redata: Require H convergence for SCF               =   T
redata: Hamiltonian tolerance for SCF               =     0.000050 eV
redata: Require (free) Energy convergence for SCF   =   F
redata: (free) Energy tolerance for SCF             =     0.000100 eV
redata: Using DFT-D3 dispersion                     =   F
redata: Using Saved Data (generic)                  =   F
redata: Use continuation files for DM               =   T
redata: Neglect nonoverlap interactions             =   F
redata: Method of Calculation                       = Diagonalization
redata: Electronic Temperature                      =   300.0000 K
redata: Fix the spin of the system                  =   F
redata: Max. number of TDED Iter                    =        1
redata: Number of TDED substeps                     =        3
redata: Dynamics option                             = Single-point calculation
mix.SCF: Pulay mixing                            = Pulay
mix.SCF:    Variant                              = stable
mix.SCF:    History steps                        = 9
mix.SCF:    Linear mixing weight                 =     0.150000
mix.SCF:    Mixing weight                        =     0.150000
mix.SCF:    SVD condition                        = 0.1000E-07
mix.SCF:    Restart steps                        = 9
mix.SCF:    Restart save steps                   = 1
mix.SCF:    Number of mixing iterations          = 9
mix.SCF:    Following mixer                      = Linear-Kick
mix.SCF: Linear mixing                           = Linear-Kick
mix.SCF:    Mixing weight                        =     0.500000
mix.SCF:    Number of mixing iterations          = 1
mix.SCF:    Following mixer                      = Pulay
redata: Save all siesta data in one NC              =   F
redata: ***********************************************************************

%block SCF.Mixers
  Pulay
  Linear-Kick
%endblock SCF.Mixers

%block SCF.Mixer.Pulay
  # Mixing method
  method pulay
  variant stable

  # Mixing options
  weight 0.1500
  weight.linear 0.1500
  history 9
  restart 9
  restart.save 1

  # Continuation options
  iterations 9
  next Linear-Kick
%endblock SCF.Mixer.Pulay

%block SCF.Mixer.Linear-Kick
  # Mixing method
  method linear

  # Mixing options
  weight 0.5000

  # Continuation options
  iterations 1
  next Pulay
%endblock SCF.Mixer.Linear-Kick

DM_history_depth set to one: no extrapolation allowed by default for geometry relaxation
Size of DM history Fstack: 1
Total number of electrons:     8.000000
Total ionic charge:     8.000000

siesta: k-grid: Number of k-points = 1
siesta: k-point is Gamma-only

diag: Algorithm                                     = D&C
diag: Used triangular part                          = Lower
diag: Absolute tolerance                            =  0.100E-15
diag: Orthogonalization factor                      =  0.100E-05
diag: Memory factor                                 =  1.0000


ts: **************************************************************
ts: Save H and S matrices                           =    F
ts: Save DM and EDM matrices                        =    F
ts: Only save the overlap matrix S                  =    F
ts: **************************************************************

************************ Begin: TS CHECKS AND WARNINGS ************************
************************ End: TS CHECKS AND WARNINGS **************************


                     ====================================
                        Single-point calculation
                     ====================================

outcoor: Atomic coordinates (Ang):                          
    0.00000000    0.00000000    0.00000000   1       1  C
    1.82000000    0.00000000    0.00000000   1       2  C

outcell: Unit cell vectors (Ang):
       10.000000    0.000000    0.000000
        0.000000   10.000000    0.000000
        0.000000    0.000000   10.000000

outcell: Cell vector modules (Ang)   :   10.000000   10.000000   10.000000
outcell: Cell angles (23,13,12) (deg):     90.0000     90.0000     90.0000
outcell: Cell volume (Ang**3)        :   1000.0000
<dSpData1D:S at geom step 0
  <sparsity:sparsity for geom step 0
    nrows_g=26 nrows=26 sparsity=1.0000 nnzs=676, refcount: 7>
  <dData1D:(new from dSpData1D) n=676, refcount: 1>
refcount: 1>
new_DM -- step:     1
Initializing Density Matrix...

Attempting to read DM from file... Failed...
DM filled with atomic data:
<dSpData2D:DM initialized from atoms
  <sparsity:sparsity for geom step 0
    nrows_g=26 nrows=26 sparsity=1.0000 nnzs=676, refcount: 8>
  <dData2D:DM n=676 m=1, refcount: 1>
refcount: 1>
No. of atoms with KB's overlaping orbs in proc 0. Max # of overlaps:       2      26

InitMesh: MESH = 108 x 108 x 108 = 1259712
InitMesh: Mesh cutoff (required, used) =   300.000   322.366 Ry
New grid distribution [1]: sub = 2

stepf: Fermi-Dirac step function

siesta: Program's energy decomposition (eV):
siesta: Ebs     =       -79.697564
siesta: Eions   =       522.735435
siesta: Ena     =       128.448425
siesta: Ekin    =       171.196500
siesta: Enl     =         0.468102
siesta: Eso     =         0.000000
siesta: Edftu   =         0.000000
siesta: DEna    =         5.566997
siesta: DUscf   =         0.975491
siesta: DUext   =         0.000000
siesta: Ex      =       -74.009149
siesta: Ec      =        -6.873100
siesta: Exc     =       -80.882249
siesta: EbV     =         0.000000
siesta: eta*DQ  =         0.000000
siesta: Emadel  =         0.000000
siesta: Emeta   =         0.000000
siesta: Emolmec =         0.000000
siesta: Ekinion =         0.000000
siesta: Eharris =      -300.014618
siesta: Etot    =      -296.962168
siesta: FreeEng =      -297.033845

        iscf     Eharris(eV)        E_KS(eV)     FreeEng(eV)     dDmax    Ef(eV) dHmax(eV)
   scf:    1     -300.014618     -296.962168     -297.033845  0.751730 -5.490825  0.859494
timer: Routine,Calls,Time,% = IterSCF        1       0.438  21.05
   scf:    2     -297.054874     -297.009773     -297.081450  0.010727 -5.613588  0.648613
   scf:    3     -297.114096     -297.073855     -297.147898  0.034975 -5.971629  0.081018
   scf:    4     -297.070797     -297.072711     -297.151036  0.010785 -5.967760  0.048152
   scf:    5     -297.053810     -297.064867     -297.149311  0.024609 -5.993879  0.090266
   scf:    6     -294.000464     -295.960310     -296.027297  0.379865 -5.947247  1.431391
   scf:    7     -296.413956     -296.193325     -296.272169  0.047230 -5.955726  1.267583
   scf:    8     -297.156317     -296.736671     -296.834258  0.143424 -5.972047  0.763830
   scf:    9     -297.057194     -296.912745     -297.011086  0.071257 -5.978099  0.512278
mix: Pulay -- resetting history
mix: switching mixer --> Linear-Kick
   scf:   10     -297.012550     -296.965183     -297.062175  0.028324 -5.980651  0.411310
mix: switching mixer --> Pulay
   scf:   11     -297.005931     -297.059175     -297.130922  0.124403 -5.970239  0.342330
   scf:   12     -297.079094     -297.069740     -297.142566  0.008583 -5.980423  0.195554
   scf:   13     -297.040907     -297.063326     -297.148635  0.038102 -5.987019  0.077977
   scf:   14     -297.065215     -297.064281     -297.149177  0.001792 -5.987770  0.072801
   scf:   15     -297.061681     -297.070274     -297.142860  0.035343 -5.987115  0.173912
   scf:   16     -297.072531     -297.072742     -297.150845  0.011711 -5.987977  0.044476
   scf:   17     -297.071322     -297.072095     -297.151439  0.003604 -5.987453  0.024305
   scf:   18     -297.070144     -297.071180     -297.151682  0.003740 -5.987548  0.004622
   scf:   19     -297.069852     -297.070536     -297.151674  0.002175 -5.987545  0.006243
mix: Pulay -- resetting history
mix: switching mixer --> Linear-Kick
   scf:   20     -297.071602     -297.071083     -297.151688  0.001825 -5.987593  0.002857
mix: switching mixer --> Pulay
   scf:   21     -297.070391     -297.070743     -297.151687  0.001166 -5.987623  0.003347
   scf:   22     -297.071118     -297.070932     -297.151691  0.000629 -5.987657  0.000623
   scf:   23     -297.070939     -297.070936     -297.151691  0.000038 -5.987505  0.000146
   scf:   24     -297.070779     -297.070858     -297.151691  0.000274 -5.987584  0.001000
   scf:   25     -297.070961     -297.070909     -297.151691  0.000175 -5.987587  0.000127
   scf:   26     -297.070916     -297.070913     -297.151691  0.000011 -5.987587  0.000075
   scf:   27     -297.070921     -297.070917     -297.151691  0.000015 -5.987587  0.000001
mix: Pulay -- inversion failed, > SVD [rank/size] 5 / 7
   scf:   28     -297.070917     -297.070917     -297.151691  0.000000 -5.987587  0.000000

SCF Convergence by DM+H criterion
max |DM_out - DM_in|         :     0.0000001951
max |H_out - H_in|      (eV) :     0.0000000224
SCF cycle converged after 28 iterations

Using DM_out to compute the final energy and forces
No. of atoms with KB's overlaping orbs in proc 0. Max # of overlaps:       2      26

siesta: E_KS(eV) =             -297.0709

siesta: E_KS - E_eggbox =      -297.0709

siesta: Atomic forces (eV/Ang):
     1    5.662221   -0.000000   -0.000000
     2   -5.661390    0.000000    0.000000
----------------------------------------
   Tot    0.000831    0.000000   -0.000000
----------------------------------------
   Max    5.662221
   Res    3.268845    sqrt( Sum f_i^2 / 3N )
----------------------------------------
   Max    5.662221    constrained

Stress tensor Voigt[x,y,z,yz,xz,xy] (kbar):       16.52       -0.00       -0.00       -0.00       -0.00       -0.00
(Free)E + p*V (eV/cell)     -300.5877
Target enthalpy (eV/cell)     -297.1517

mulliken: Atomic and Orbital Populations:

Species: C                   
Atom  Qatom  Qorb
               2s      2s      2py     2pz     2px     2py     2pz     2px     
               3Pdxy   3Pdyz   3Pdz2   3Pdxz   3Pdx2-y2
   1  4.000   1.760   0.075   0.518   0.518   0.978  -0.004  -0.004   0.122
              0.007   0.000   0.006   0.007   0.017
   2  4.000   1.760   0.075   0.518   0.518   0.978  -0.004  -0.004   0.122
              0.007   0.000   0.006   0.007   0.017

mulliken: Qtot =        8.000

Mulliken Atomic Populations:
Atom #   charge [q] valence [e]  Species
     1    -0.000016    4.000016  C
     2     0.000016    3.999984  C
--------------------
 Total    -0.000000

coxmol: Writing XMOL coordinates into file dimer_distance.xyz                                                                                                                                                                                                                  

siesta: Program's energy decomposition (eV):
siesta: Ebs     =       -77.763318
siesta: Eions   =       522.735435
siesta: Ena     =       128.448425
siesta: Ekin    =       172.044536
siesta: Enl     =         0.983322
siesta: Eso     =         0.000000
siesta: Edftu   =         0.000000
siesta: DEna    =         4.653383
siesta: DUscf   =         0.567607
siesta: DUext   =         0.000000
siesta: Ex      =       -74.112018
siesta: Ec      =        -6.920738
siesta: Exc     =       -81.032756
siesta: EbV     =         0.000000
siesta: eta*DQ  =         0.000000
siesta: Emadel  =         0.000000
siesta: Emeta   =         0.000000
siesta: Emolmec =         0.000000
siesta: Ekinion =         0.000000
siesta: Eharris =      -297.070917
siesta: Etot    =      -297.070917
siesta: FreeEng =      -297.151691

siesta: Final energy (eV):
siesta:  Band Struct. =     -77.763318
siesta:       Kinetic =     172.044536
siesta:       Hartree =     242.381758
siesta:         Edftu =       0.000000
siesta:       Eso     =       0.000000
siesta:    Ext. field =       0.000000
siesta:         Exch. =     -74.112018
siesta:         Corr. =      -6.920738
siesta:     Bulk bias =       0.000000
siesta:   Exch.-corr. =     -81.032756
siesta:  Ion-electron =    -629.666324
siesta:       Ion-ion =      -0.798132
siesta:       Ekinion =       0.000000
siesta: D3 dispersion =       0.000000
siesta:         Total =    -297.070917
siesta:         Fermi =      -5.987587

siesta: Atomic forces (eV/Ang):
siesta:      1    5.662221   -0.000000   -0.000000
siesta:      2   -5.661390    0.000000    0.000000
siesta: ----------------------------------------
siesta:    Tot    0.000831    0.000000   -0.000000

siesta: Stress tensor (static) (eV/Ang**3):
siesta:     0.010308    0.000000    0.000000
siesta:    -0.000000   -0.000000   -0.000000
siesta:    -0.000000   -0.000000   -0.000000

siesta: Cell volume =       1000.000000 Ang**3

siesta: Pressure (static):
siesta:                Solid            Molecule  Units
siesta:          -0.00003742         -0.00000001  Ry/Bohr**3
siesta:          -0.00343605         -0.00000122  eV/Ang**3
siesta:          -5.50515692         -0.00195500  kBar
(Free)E+ p_basis*V_orbitals  =        -296.392287
(Free)Eharris+ p_basis*V_orbitals  =        -296.392287

mulliken: Atomic and Orbital Populations:

Species: C                   
Atom  Qatom  Qorb
               2s      2s      2py     2pz     2px     2py     2pz     2px     
               3Pdxy   3Pdyz   3Pdz2   3Pdxz   3Pdx2-y2
   1  4.000   1.760   0.075   0.518   0.518   0.978  -0.004  -0.004   0.122
              0.007   0.000   0.006   0.007   0.017
   2  4.000   1.760   0.075   0.518   0.518   0.978  -0.004  -0.004   0.122
              0.007   0.000   0.006   0.007   0.017

mulliken: Qtot =        8.000

Mulliken Atomic Populations:
Atom #   charge [q] valence [e]  Species
     1    -0.000016    4.000016  C
     2     0.000016    3.999984  C
--------------------
 Total    -0.000000

siesta: Electric dipole (a.u.)  =    0.000006   -0.000000   -0.000000
siesta: Electric dipole (Debye) =    0.000015   -0.000000   -0.000000

Hirshfeld Atomic Populations:
Atom #   charge [q] valence [e]  Species
     1    -0.000003    4.000003  C
     2     0.000003    3.999997  C
--------------------
 Total    -0.000000

Voronoi Atomic Populations:
Atom #   charge [q] valence [e]  Species
     1     0.008750    3.991250  C
     2    -0.008750    4.008750  C
--------------------
 Total    -0.000000

cite: Please indicate the Siesta version in published work: 5.2.2
cite: This calculation has made use of features in the following articles
cite: which we encourage you to cite in published work.
cite: (Please see "dimer_distance.bib" for a BibTeX file.)
        Primary SIESTA paper
          DOI: www.doi.org/10.1088/0953-8984/14/11/302


timer: Elapsed wall time (sec) =      16.037
timer: CPU execution times (sec):

Routine            Calls   Time/call    Tot.time        %
siesta                 1      15.594      15.594   100.00
Setup                  1       0.116       0.116     0.74
bands                  1       0.000       0.000     0.00
KSV_init               1       0.000       0.000     0.00
IterGeom               1      14.688      14.688    94.19
geom_init              1       1.526       1.526     9.78
state_init             1       0.114       0.114     0.73
hsparse                1       0.000       0.000     0.00
overlap                1       0.113       0.113     0.72
Setup_H0               1       0.964       0.964     6.18
naefs                  2       0.000       0.000     0.00
dnaefs                 2       0.000       0.000     0.00
MolMec                 2       0.000       0.000     0.00
kinefsm                2       0.055       0.110     0.71
nlefsm                 2       0.209       0.417     2.68
DHSCF_Init             1       0.438       0.438     2.81
DHSCF1                 1       0.043       0.043     0.27
InitMesh               1       0.043       0.043     0.27
INITMESH               1       0.000       0.000     0.00
DHSCF2                 1       0.395       0.395     2.53
REMESH                 1       0.015       0.015     0.10
REORD                 71       0.003       0.192     1.23
PHION                  1       0.230       0.230     1.48
COMM_BSC             128       0.002       0.243     1.56
POISON                32       0.099       3.157    20.24
fft                   64       0.034       2.145    13.75
setup_H               29       0.442      12.812    82.16
DHSCF                 31       0.461      14.288    91.63
DHSCF3                31       0.451      13.981    89.65
rhoofd                31       0.032       0.997     6.39
XC                    31       0.252       7.816    50.12
GXC-CellXC            31       0.243       7.519    48.22
gridxc@cellXC         31       0.243       7.519    48.22
vmat                  30       0.022       0.673     4.31
IterSCF               28       0.443      12.390    79.45
compute_dm            28       0.000       0.011     0.07
diagon                28       0.000       0.010     0.06
r-eigvec              28       0.000       0.007     0.05
r-buildHS             28       0.000       0.000     0.00
rdiag                 28       0.000       0.007     0.04
rdiag1                28       0.000       0.001     0.00
rdiag2                28       0.000       0.001     0.00
rdiag3                28       0.000       0.004     0.03
rdiag4                28       0.000       0.001     0.01
r-buildD              28       0.000       0.001     0.01
MIXER                 27       0.000       0.001     0.01
PostSCF                1       0.770       0.770     4.94
FINAL_HF               1       0.770       0.770     4.94
DHSCF4                 1       0.307       0.307     1.97
dfscf                  1       0.270       0.270     1.73
overfsm                1       0.000       0.000     0.00
writeHSX               1       0.000       0.000     0.00
state_analysis         1       0.001       0.001     0.01
siesta_move            1       0.000       0.000     0.00
Analysis               1       0.787       0.787     5.05
optical                1       0.000       0.000     0.00
partial-charges        1       0.322       0.322     2.07
  

>> End of run:  28-MAR-2025  16:15:02
Job completed
