Executable      : siesta
Version         : 5.2.2
Architecture    : x86_64
Compiler version: GNU-13.3.0
Compiler flags  : -march=nocona -mtune=haswell -ftree-vectorize -fPIC -fstack-protector-strong -fno-plt -O2 -ffunction-sections -pipe -isystem <prefix>/include -I<prefix>/_build_env/include -fdebug-prefix-map=<prefix>/work=/usr/local/src/conda/siesta-5.2.2 -fdebug-prefix-map=<prefix>=/usr/local/src/conda-prefix -I<prefix>/lib -fallow-argument-mismatch -O3
Parallelisations: none
NetCDF support
NetCDF-4 support
Lua support
DFT-D3 support

Runtime information:
* Directory : /v/rconte1/dimer/distance2/runs/run029
* Running in serial mode.
>> Start of run:  28-MAR-2025  16:11:50

                           *********************** 
                           *  WELCOME TO SIESTA  * 
                           *********************** 

 NOTE: Siesta V5 introduces some new defaults for basis-set generation
 NOTE: which might lead to slightly different numerical results.
 NOTE: Please see the manual for full details and compatibility measures.


reinit: Reading from standard input
reinit: Dumping input in INPUT_TMP.36011
************************** Dump of input data file ****************************
#DON'T FORGET TO PUT THE .PSF FILE TO THE SAME DIRECTORY
SystemName          Dimer of Carbon                     # Name of the system we want to investigate
SystemLabel         dimer_distance                           # name of output files
NumberOfAtoms       2                                # how many number in the unit cell? Dimer -> 2 atoms
NumberOfSpecies     1                                # how many different type of atoms? Dimer -> 1
%block ChemicalSpeciesLabel
 1  6  C        # Species index, atomic number, species label
%endblock ChemicalSpeciesLabel
# ----------------------
# STRUCTURAL INFORMATION
# ----------------------
LatticeConstant     1.0 Ang
%block LatticeVectors
   10.000000    0.000000    0.000000
    0.000000   10.000000    0.000000
    0.000000    0.000000   10.000000
%endblock LatticeVectors
AtomicCoordinatesFormat Ang
%block AtomicCoordinatesAndAtomicSpecies
    0.000000     0.000000     0.000000   1
    1.580     0.000000     0.000000   1
%endblock AtomicCoordinatesAndAtomicSpecies
# --
# XC
# --
xc.functional	        GGA	
xc.authors		PBE	
# ----
# GRID
# ----
# MeshCutoff 		200. Ry
# ---------------
# Solution Method
# ---------------
SolutionMethod		diagon
ElectronicTemperature	300 K	
# ---
# SCF
# ---
SCF.DM.Tolerance         5.E-6
SCF.H.Tolerance          5.E-5 eV
SCF.Mix                  Hamiltonian
# SCF.Mix.Spin             all
SCF.Mixer.Method         Pulay
SCF.Mixer.Weight         0.15
SCF.Mixer.Kick           10
SCF.Mixer.History        20
MaxSCFIterations	     200
DM.UseSaveDM	     	 T
SaveHS                   T
# --------------
# OUTPUT OPTIONS
# --------------
WriteEigenvalues       F
WriteForces            T
WriteCoorStep          T
WriteCoorXmol          T     # generate the .xyz file 
WriteMDXmol            T     # generate the .ani file 
WriteMullikenPop       1
Write.HirshfeldPop     T
Write.VoronoiPop       T
Write.DM.NetCDF        T
Write.DMHS.NetCDF      T
************************** End of input data file *****************************

reinit: -----------------------------------------------------------------------
reinit: System Name: Dimer of Carbon
reinit: -----------------------------------------------------------------------
reinit: System Label: dimer_distance
reinit: -----------------------------------------------------------------------

initatom: Reading input for the pseudopotentials and atomic orbitals ----------
Species number:   1 Atomic number:    6 Label: C

Ground state valence configuration (from tables):   2s02  2p02  3d00  4f00

---- Processing specs for species: C
Reading pseudopotential information in formatted form from:
  C.psf

---- Pseudopotential check for  C

Pseudized shells:
2s( 2.00) rc: 1.56
2p( 2.00) rc: 1.56
3d( 0.00) rc: 1.56
4f( 0.00) rc: 1.56
Valence configuration for ps generation: (assumed as above)
For C, standard SIESTA heuristics set lmxkb to 3
 (one more than the basis l, including polarization orbitals).
Use PS.lmax or PS.KBprojectors blocks to override.

<basis_specs>
===============================================================================
C                    Z=   6    Mass=  12.011        Charge= 0.17977+309
Lmxo=2 Lmxkb= 3    BasisType=split      Semic=F
L=0  Nsemic=0  Cnfigmx=2
          i=1  nzeta=2  polorb=0  (2s)
            splnorm:   0.15000    
               vcte:    40.000    
               rinn:  -0.90000    
               qcoe:    0.0000    
               qyuk:    0.0000    
               qwid:   0.10000E-01
                rcs:    0.0000      0.0000    
            lambdas:    1.0000      1.0000    
L=1  Nsemic=0  Cnfigmx=2
          i=1  nzeta=2  polorb=1  (2p)  (to be polarized perturbatively)
            splnorm:   0.15000    
               vcte:    40.000    
               rinn:  -0.90000    
               qcoe:    0.0000    
               qyuk:    0.0000    
               qwid:   0.10000E-01
                rcs:    0.0000      0.0000    
            lambdas:    1.0000      1.0000    
L=2  Nsemic=0  Cnfigmx=3
          i=1  nzeta=0  polorb=0  (3d)  (perturbative polarization orbital) (from 2p)
-------------------------------------------------------------------------------
L=0  Nkbl=1  erefs: 0.17977+309
L=1  Nkbl=1  erefs: 0.17977+309
L=2  Nkbl=1  erefs: 0.17977+309
L=3  Nkbl=1  erefs: 0.17977+309
===============================================================================
</basis_specs>

Using PAO.SplitTailNorm
atom: Called for C                     (Z =   6)
Maximum radius (at nrval) set to   50.00000 8518

read_vps: Pseudopotential generation method:
read_vps: ATM 3.2.2 Troullier-Martins                       
Valence charge in pseudo generation:    4.00000

xc_check: Exchange-correlation functional:
xc_check: GGA Perdew, Burke & Ernzerhof 1996
V l=0 = -2*Zval/r beyond r=  1.5347
V l=1 = -2*Zval/r beyond r=  1.5332
V l=2 = -2*Zval/r beyond r=  1.5347
V l=3 = -2*Zval/r beyond r=  1.5347
All V_l potentials equal beyond r=  1.4890
This should be close to max(r_c) in ps generation
All pots = -2*Zval/r beyond r=  1.5347
Using small-core scheme (local charge) for Vlocal

VLOCAL_FROM_CHLOCAL: 99.0% of the norm of Vloc inside     19.577 Ry
VLOCAL_FROM_CHLOCAL: 99.9% of the norm of Vloc inside     44.617 Ry
atom: Maximum radius for chlocal:    1.77931
atom: Maximum radius for r*vlocal+2*Zval:    1.63022

KBgen: Kleinman-Bylander projectors: 
GHOST: No ghost state for L =  0
   l= 0   rc=  1.646704   el= -1.010689   Ekb=  5.277734   kbcos=  0.315993
GHOST: No ghost state for L =  1
   l= 1   rc=  1.648361   el= -0.388490   Ekb= -4.115733   kbcos= -0.351483
GHOST: No ghost state for L =  2
   l= 2   rc=  1.735131   el=  0.012917   Ekb= -1.012311   kbcos= -0.009283
GHOST: No ghost state for L =  3
   l= 3   rc=  1.777521   el=  0.019225   Ekb= -0.424772   kbcos= -0.001204

KBgen: Total number of Kleinman-Bylander projectors:  16
atom: -------------------------------------------------------------------------

atom: SANKEY-TYPE ORBITALS:
atom: Selected multiple-zeta basis: split     

SPLIT: Orbitals with angular momentum L= 0

SPLIT: Basis orbitals for state 2s

SPLIT: PAO cut-off radius determined from an
SPLIT: energy shift=  0.010000 Ry
Split based on tail norm

   izeta = 1
                 lambda =    1.000000
                     rc =    4.484389
                 energy =   -0.999400
                kinetic =    0.879719
    potential(screened) =   -1.879119
       potential(ionic) =   -5.474723

   izeta = 2
                 rmatch =    3.048210
              splitnorm =    0.150000
                 energy =   -0.737057
                kinetic =    1.553917
    potential(screened) =   -2.290974
       potential(ionic) =   -6.191799

SPLIT: Orbitals with angular momentum L= 1

SPLIT: Basis orbitals for state 2p

SPLIT: PAO cut-off radius determined from an
SPLIT: energy shift=  0.010000 Ry
Split based on tail norm

   izeta = 1
                 lambda =    1.000000
                     rc =    5.435719
                 energy =   -0.377283
                kinetic =    2.459011
    potential(screened) =   -2.836294
       potential(ionic) =   -6.303833

   izeta = 2
                 rmatch =    3.691839
              splitnorm =    0.150000
                 energy =   -0.247686
                kinetic =    3.567780
    potential(screened) =   -3.815466
       potential(ionic) =   -7.634895

POLgen: Perturbative polarization orbital with L=  2

POLgen: Polarization orbital for state 2p
Split based on tail norm

   izeta = 1
                     rc =    5.435719
                 energy =    1.173953
                kinetic =    2.358612
    potential(screened) =   -1.184659
       potential(ionic) =   -4.054396
atom: Total number of Sankey-type orbitals: 13

atm_pop: Valence configuration (for local Pseudopot. screening):
 2s( 2.00)                                                            
 2p( 2.00)                                                            
 3d( 0.00)                                                            
Vna: chval, zval:    4.00000   4.00000

Vna:  Cut-off radius for the neutral-atom potential:   5.435719

atom: _________________________________________________________________________

prinput: Basis input 

PAO.BasisType split     

%block ChemicalSpeciesLabel
    1    6 C                       # Species index, atomic number, species label
%endblock ChemicalSpeciesLabel

%block PAO.Basis                 # Define Basis set
# WARNING: This information might be incomplete!
C                     2                    # Species label, number of l-shells
 n=2   0   2                         # n, l, Nzeta 
   4.484      3.048   
   1.000      1.000   
 n=2   1   2 P   1                   # n, l, Nzeta, Polarization, NzetaPol
   5.436      3.692   
   1.000      1.000   
%endblock PAO.Basis

prinput: ----------------------------------------------------------------------

Dumping basis to NetCDF file C.ion.nc
coor:   Atomic-coordinates input format  =     Cartesian coordinates
coor:                                          (in Angstroms)

siesta: Atomic coordinates (Bohr) and species
siesta:      0.00000   0.00000   0.00000  1        1
siesta:      2.98577   0.00000   0.00000  1        2

siesta: System type = molecule  

initatomlists: Number of atoms, orbitals, and projectors:      2    26    32

coxmol: Writing XMOL coordinates into file dimer_distance.xyz                                                                                                                                                                                                                  

siesta: ******************** Simulation parameters ****************************
siesta:
siesta: The following are some of the parameters of the simulation.
siesta: A complete list of the parameters used, including default values,
siesta: can be found in file out.fdf
siesta:
redata: Spin configuration                          = none
redata: Number of spin components                   = 1
redata: Time-Reversal Symmetry                      = T
redata: Spin spiral                                 = F
redata: Long output                                 =   F
redata: Number of Atomic Species                    =        1
redata: Charge density info will appear in .RHO file
redata: Write Mulliken charges (when)               = geometry+end
redata: Write Mulliken Pop.                         = Atomic and Orbital charges
redata: Write Hirshfeld charges (when)              = end
redata: Write Voronoi charges (when)                = end
redata: Write spin charge (when)                    = none
redata: Matel table size (NRTAB)                    =     1024
redata: Mesh Cutoff                                 =   300.0000 Ry
redata: Net charge of the system                    =     0.0000 |e|
redata: Min. number of SCF Iter                     =        0
redata: Max. number of SCF Iter                     =      200
redata: SCF convergence failure will abort job
redata: SCF mix quantity                            = Hamiltonian
redata: Mix DM or H after convergence               =   F
redata: Recompute H after scf cycle                 =   F
redata: Mix DM in first SCF step                    =   T
redata: Write Pulay info on disk                    =   F
redata: New DM Occupancy tolerance                  = 0.000000000001
redata: No kicks to SCF
redata: DM Mixing Weight for Kicks                  =     0.5000
redata: Require Harris convergence for SCF          =   F
redata: Harris energy tolerance for SCF             =     0.000100 eV
redata: Require DM convergence for SCF              =   T
redata: DM tolerance for SCF                        =     0.000005
redata: Require EDM convergence for SCF             =   F
redata: EDM tolerance for SCF                       =     0.001000 eV
redata: Require H convergence for SCF               =   T
redata: Hamiltonian tolerance for SCF               =     0.000050 eV
redata: Require (free) Energy convergence for SCF   =   F
redata: (free) Energy tolerance for SCF             =     0.000100 eV
redata: Using DFT-D3 dispersion                     =   F
redata: Using Saved Data (generic)                  =   F
redata: Use continuation files for DM               =   T
redata: Neglect nonoverlap interactions             =   F
redata: Method of Calculation                       = Diagonalization
redata: Electronic Temperature                      =   300.0000 K
redata: Fix the spin of the system                  =   F
redata: Max. number of TDED Iter                    =        1
redata: Number of TDED substeps                     =        3
redata: Dynamics option                             = Single-point calculation
mix.SCF: Pulay mixing                            = Pulay
mix.SCF:    Variant                              = stable
mix.SCF:    History steps                        = 9
mix.SCF:    Linear mixing weight                 =     0.150000
mix.SCF:    Mixing weight                        =     0.150000
mix.SCF:    SVD condition                        = 0.1000E-07
mix.SCF:    Restart steps                        = 9
mix.SCF:    Restart save steps                   = 1
mix.SCF:    Number of mixing iterations          = 9
mix.SCF:    Following mixer                      = Linear-Kick
mix.SCF: Linear mixing                           = Linear-Kick
mix.SCF:    Mixing weight                        =     0.500000
mix.SCF:    Number of mixing iterations          = 1
mix.SCF:    Following mixer                      = Pulay
redata: Save all siesta data in one NC              =   F
redata: ***********************************************************************

%block SCF.Mixers
  Pulay
  Linear-Kick
%endblock SCF.Mixers

%block SCF.Mixer.Pulay
  # Mixing method
  method pulay
  variant stable

  # Mixing options
  weight 0.1500
  weight.linear 0.1500
  history 9
  restart 9
  restart.save 1

  # Continuation options
  iterations 9
  next Linear-Kick
%endblock SCF.Mixer.Pulay

%block SCF.Mixer.Linear-Kick
  # Mixing method
  method linear

  # Mixing options
  weight 0.5000

  # Continuation options
  iterations 1
  next Pulay
%endblock SCF.Mixer.Linear-Kick

DM_history_depth set to one: no extrapolation allowed by default for geometry relaxation
Size of DM history Fstack: 1
Total number of electrons:     8.000000
Total ionic charge:     8.000000

siesta: k-grid: Number of k-points = 1
siesta: k-point is Gamma-only

diag: Algorithm                                     = D&C
diag: Used triangular part                          = Lower
diag: Absolute tolerance                            =  0.100E-15
diag: Orthogonalization factor                      =  0.100E-05
diag: Memory factor                                 =  1.0000


ts: **************************************************************
ts: Save H and S matrices                           =    F
ts: Save DM and EDM matrices                        =    F
ts: Only save the overlap matrix S                  =    F
ts: **************************************************************

************************ Begin: TS CHECKS AND WARNINGS ************************
************************ End: TS CHECKS AND WARNINGS **************************


                     ====================================
                        Single-point calculation
                     ====================================

outcoor: Atomic coordinates (Ang):                          
    0.00000000    0.00000000    0.00000000   1       1  C
    1.58000000    0.00000000    0.00000000   1       2  C

outcell: Unit cell vectors (Ang):
       10.000000    0.000000    0.000000
        0.000000   10.000000    0.000000
        0.000000    0.000000   10.000000

outcell: Cell vector modules (Ang)   :   10.000000   10.000000   10.000000
outcell: Cell angles (23,13,12) (deg):     90.0000     90.0000     90.0000
outcell: Cell volume (Ang**3)        :   1000.0000
<dSpData1D:S at geom step 0
  <sparsity:sparsity for geom step 0
    nrows_g=26 nrows=26 sparsity=1.0000 nnzs=676, refcount: 7>
  <dData1D:(new from dSpData1D) n=676, refcount: 1>
refcount: 1>
new_DM -- step:     1
Initializing Density Matrix...

Attempting to read DM from file... Failed...
DM filled with atomic data:
<dSpData2D:DM initialized from atoms
  <sparsity:sparsity for geom step 0
    nrows_g=26 nrows=26 sparsity=1.0000 nnzs=676, refcount: 8>
  <dData2D:DM n=676 m=1, refcount: 1>
refcount: 1>
No. of atoms with KB's overlaping orbs in proc 0. Max # of overlaps:       2      26

InitMesh: MESH = 108 x 108 x 108 = 1259712
InitMesh: Mesh cutoff (required, used) =   300.000   322.366 Ry
New grid distribution [1]: sub = 2

stepf: Fermi-Dirac step function

siesta: Program's energy decomposition (eV):
siesta: Ebs     =       -82.505410
siesta: Eions   =       522.735435
siesta: Ena     =       127.157866
siesta: Ekin    =       179.309644
siesta: Enl     =        -2.250651
siesta: Eso     =         0.000000
siesta: Edftu   =         0.000000
siesta: DEna    =         2.322959
siesta: DUscf   =         1.252526
siesta: DUext   =         0.000000
siesta: Ex      =       -76.213660
siesta: Ec      =        -7.004354
siesta: Exc     =       -83.218014
siesta: EbV     =         0.000000
siesta: eta*DQ  =         0.000000
siesta: Emadel  =         0.000000
siesta: Emeta   =         0.000000
siesta: Emolmec =         0.000000
siesta: Ekinion =         0.000000
siesta: Eharris =      -300.328552
siesta: Etot    =      -298.161104
siesta: FreeEng =      -298.233028

        iscf     Eharris(eV)        E_KS(eV)     FreeEng(eV)     dDmax    Ef(eV) dHmax(eV)
   scf:    1     -300.328552     -298.161104     -298.233028  0.882863 -6.339351  0.992480
timer: Routine,Calls,Time,% = IterSCF        1       0.433  20.03
   scf:    2     -298.614393     -298.433209     -298.527180  0.087681 -6.431679  0.419147
   scf:    3     -296.693553     -298.034233     -298.091187  0.324068 -6.497011  1.130586
   scf:    4     -296.157755     -297.182497     -297.182522  0.117443 -6.496309  2.275940
   scf:    5     -297.582642     -297.386707     -297.387659  0.012028 -6.432765  1.908847
   scf:    6     -296.020082     -298.121476     -298.193158  0.485447 -6.566815  1.117001
   scf:    7     -298.147398     -298.134492     -298.206193  0.002145 -6.597777  1.074288
   scf:    8     -297.764397     -298.405788     -298.492432  0.281707 -6.569130  0.505931
   scf:    9     -298.543613     -298.485671     -298.579533  0.047729 -6.563624  0.274838
mix: Pulay -- resetting history
mix: switching mixer --> Linear-Kick
   scf:   10     -298.521654     -298.505472     -298.601331  0.019180 -6.566440  0.182037
mix: switching mixer --> Pulay
   scf:   11     -297.507074     -298.232708     -298.311349  0.208119 -6.587315  0.867501
   scf:   12     -298.599918     -298.514347     -298.613002  0.134981 -6.579708  0.157104
   scf:   13     -297.916797     -298.290359     -298.374210  0.120712 -6.558746  0.777995
   scf:   14     -298.550082     -298.522757     -298.621414  0.144867 -6.618320  0.036135
   scf:   15     -298.459881     -298.504947     -298.600835  0.052482 -6.595412  0.205406
   scf:   16     -298.504716     -298.521484     -298.620199  0.057745 -6.613398  0.063129
   scf:   17     -298.524304     -298.523343     -298.621930  0.009379 -6.613290  0.017536
   scf:   18     -298.523161     -298.523255     -298.621858  0.000772 -6.613661  0.021839
   scf:   19     -298.523475     -298.523592     -298.622031  0.006679 -6.613432  0.010337
mix: Pulay -- resetting history
mix: switching mixer --> Linear-Kick
   scf:   20     -298.523601     -298.523600     -298.622061  0.000795 -6.613366  0.006507
mix: switching mixer --> Pulay
   scf:   21     -298.520682     -298.522632     -298.621299  0.009794 -6.613447  0.041400
   scf:   22     -298.523808     -298.523582     -298.622081  0.008412 -6.613405  0.000238
   scf:   23     -298.523584     -298.523583     -298.622081  0.000037 -6.613290  0.000077
   scf:   24     -298.523583     -298.523583     -298.622081  0.000008 -6.613260  0.000066
   scf:   25     -298.523583     -298.523583     -298.622081  0.000010 -6.613243  0.000023
   scf:   26     -298.523583     -298.523583     -298.622081  0.000003 -6.613238  0.000010

SCF Convergence by DM+H criterion
max |DM_out - DM_in|         :     0.0000028158
max |H_out - H_in|      (eV) :     0.0000101041
SCF cycle converged after 26 iterations

Using DM_out to compute the final energy and forces
No. of atoms with KB's overlaping orbs in proc 0. Max # of overlaps:       2      26

siesta: E_KS(eV) =             -298.5236

siesta: E_KS - E_eggbox =      -298.5236

siesta: Atomic forces (eV/Ang):
     1    6.386835    0.000000   -0.000000
     2   -6.386125    0.000000   -0.000000
----------------------------------------
   Tot    0.000710    0.000000   -0.000000
----------------------------------------
   Max    6.386835
   Res    3.687236    sqrt( Sum f_i^2 / 3N )
----------------------------------------
   Max    6.386835    constrained

Stress tensor Voigt[x,y,z,yz,xz,xy] (kbar):       16.18        0.00        0.00       -0.00        0.00       -0.00
(Free)E + p*V (eV/cell)     -301.9886
Target enthalpy (eV/cell)     -298.6221

mulliken: Atomic and Orbital Populations:

Species: C                   
Atom  Qatom  Qorb
               2s      2s      2py     2pz     2px     2py     2pz     2px     
               3Pdxy   3Pdyz   3Pdz2   3Pdxz   3Pdx2-y2
   1  4.000   1.511   0.153   0.627   0.627   0.822   0.045   0.045   0.122
              0.013  -0.000   0.005   0.013   0.016
   2  4.000   1.511   0.153   0.627   0.627   0.822   0.045   0.045   0.122
              0.013   0.000   0.005   0.013   0.016

mulliken: Qtot =        8.000

Mulliken Atomic Populations:
Atom #   charge [q] valence [e]  Species
     1    -0.000003    4.000003  C
     2     0.000003    3.999997  C
--------------------
 Total     0.000000

coxmol: Writing XMOL coordinates into file dimer_distance.xyz                                                                                                                                                                                                                  

siesta: Program's energy decomposition (eV):
siesta: Ebs     =       -82.113240
siesta: Eions   =       522.735435
siesta: Ena     =       127.157866
siesta: Ekin    =       177.874101
siesta: Enl     =        -2.385903
siesta: Eso     =         0.000000
siesta: Edftu   =         0.000000
siesta: DEna    =         3.669656
siesta: DUscf   =         0.163043
siesta: DUext   =         0.000000
siesta: Ex      =       -75.115698
siesta: Ec      =        -7.151213
siesta: Exc     =       -82.266911
siesta: EbV     =         0.000000
siesta: eta*DQ  =         0.000000
siesta: Emadel  =         0.000000
siesta: Emeta   =         0.000000
siesta: Emolmec =         0.000000
siesta: Ekinion =         0.000000
siesta: Eharris =      -298.523583
siesta: Etot    =      -298.523583
siesta: FreeEng =      -298.622081

siesta: Final energy (eV):
siesta:  Band Struct. =     -82.113240
siesta:       Kinetic =     177.874101
siesta:       Hartree =     258.711184
siesta:         Edftu =       0.000000
siesta:       Eso     =       0.000000
siesta:    Ext. field =       0.000000
siesta:         Exch. =     -75.115698
siesta:         Corr. =      -7.151213
siesta:     Bulk bias =       0.000000
siesta:   Exch.-corr. =     -82.266911
siesta:  Ion-electron =    -670.844699
siesta:       Ion-ion =      18.002743
siesta:       Ekinion =       0.000000
siesta: D3 dispersion =       0.000000
siesta:         Total =    -298.523583
siesta:         Fermi =      -6.613238

siesta: Atomic forces (eV/Ang):
siesta:      1    6.386835    0.000000   -0.000000
siesta:      2   -6.386125    0.000000   -0.000000
siesta: ----------------------------------------
siesta:    Tot    0.000710    0.000000   -0.000000

siesta: Stress tensor (static) (eV/Ang**3):
siesta:     0.010098   -0.000000    0.000000
siesta:    -0.000000    0.000001   -0.000000
siesta:     0.000000   -0.000000    0.000001

siesta: Cell volume =       1000.000000 Ang**3

siesta: Pressure (static):
siesta:                Solid            Molecule  Units
siesta:          -0.00003667         -0.00000003  Ry/Bohr**3
siesta:          -0.00336654         -0.00000300  eV/Ang**3
siesta:          -5.39379572         -0.00480075  kBar
(Free)E+ p_basis*V_orbitals  =        -297.862677
(Free)Eharris+ p_basis*V_orbitals  =        -297.862677

mulliken: Atomic and Orbital Populations:

Species: C                   
Atom  Qatom  Qorb
               2s      2s      2py     2pz     2px     2py     2pz     2px     
               3Pdxy   3Pdyz   3Pdz2   3Pdxz   3Pdx2-y2
   1  4.000   1.511   0.153   0.627   0.627   0.822   0.045   0.045   0.122
              0.013  -0.000   0.005   0.013   0.016
   2  4.000   1.511   0.153   0.627   0.627   0.822   0.045   0.045   0.122
              0.013   0.000   0.005   0.013   0.016

mulliken: Qtot =        8.000

Mulliken Atomic Populations:
Atom #   charge [q] valence [e]  Species
     1    -0.000003    4.000003  C
     2     0.000003    3.999997  C
--------------------
 Total     0.000000

siesta: Electric dipole (a.u.)  =   -0.000002   -0.000000    0.000000
siesta: Electric dipole (Debye) =   -0.000006   -0.000000    0.000000

Hirshfeld Atomic Populations:
Atom #   charge [q] valence [e]  Species
     1     0.000001    3.999999  C
     2    -0.000000    4.000000  C
--------------------
 Total     0.000000

Voronoi Atomic Populations:
Atom #   charge [q] valence [e]  Species
     1     0.000826    3.999174  C
     2    -0.000825    4.000825  C
--------------------
 Total     0.000000

cite: Please indicate the Siesta version in published work: 5.2.2
cite: This calculation has made use of features in the following articles
cite: which we encourage you to cite in published work.
cite: (Please see "dimer_distance.bib" for a BibTeX file.)
        Primary SIESTA paper
          DOI: www.doi.org/10.1088/0953-8984/14/11/302


timer: Elapsed wall time (sec) =      14.802
timer: CPU execution times (sec):

Routine            Calls   Time/call    Tot.time        %
siesta                 1      14.453      14.453   100.00
Setup                  1       0.143       0.143     0.99
bands                  1       0.000       0.000     0.00
KSV_init               1       0.000       0.000     0.00
IterGeom               1      13.639      13.639    94.37
geom_init              1       1.584       1.584    10.96
state_init             1       0.116       0.116     0.80
hsparse                1       0.000       0.000     0.00
overlap                1       0.114       0.114     0.79
Setup_H0               1       1.000       1.000     6.92
naefs                  2       0.000       0.000     0.00
dnaefs                 2       0.000       0.000     0.00
MolMec                 2       0.000       0.000     0.00
kinefsm                2       0.064       0.129     0.89
nlefsm                 2       0.214       0.428     2.96
DHSCF_Init             1       0.445       0.445     3.08
DHSCF1                 1       0.042       0.042     0.29
InitMesh               1       0.042       0.042     0.29
INITMESH               1       0.000       0.000     0.00
DHSCF2                 1       0.404       0.404     2.79
REMESH                 1       0.018       0.018     0.12
REORD                 67       0.003       0.180     1.25
PHION                  1       0.229       0.229     1.58
COMM_BSC             120       0.002       0.227     1.57
POISON                30       0.099       2.964    20.51
fft                   60       0.033       2.006    13.88
setup_H               27       0.436      11.766    81.41
DHSCF                 29       0.451      13.090    90.57
DHSCF3                29       0.442      12.805    88.60
rhoofd                29       0.033       0.957     6.62
XC                    29       0.243       7.040    48.71
GXC-CellXC            29       0.233       6.763    46.79
gridxc@cellXC         29       0.233       6.763    46.79
vmat                  28       0.023       0.638     4.42
IterSCF               26       0.435      11.320    78.32
compute_dm            26       0.000       0.009     0.06
diagon                26       0.000       0.008     0.06
r-eigvec              26       0.000       0.006     0.04
r-buildHS             26       0.000       0.000     0.00
rdiag                 26       0.000       0.006     0.04
rdiag1                26       0.000       0.000     0.00
rdiag2                26       0.000       0.001     0.00
rdiag3                26       0.000       0.004     0.03
rdiag4                26       0.000       0.001     0.00
r-buildD              26       0.000       0.001     0.01
MIXER                 25       0.000       0.001     0.01
PostSCF                1       0.733       0.733     5.07
FINAL_HF               1       0.733       0.733     5.07
DHSCF4                 1       0.284       0.284     1.97
dfscf                  1       0.246       0.246     1.70
overfsm                1       0.000       0.000     0.00
writeHSX               1       0.000       0.000     0.00
state_analysis         1       0.001       0.001     0.01
siesta_move            1       0.000       0.000     0.00
Analysis               1       0.669       0.669     4.63
optical                1       0.000       0.000     0.00
partial-charges        1       0.268       0.268     1.86
  

>> End of run:  28-MAR-2025  16:12:05
Job completed
