Executable      : siesta
Version         : 5.2.2
Architecture    : x86_64
Compiler version: GNU-13.3.0
Compiler flags  : -march=nocona -mtune=haswell -ftree-vectorize -fPIC -fstack-protector-strong -fno-plt -O2 -ffunction-sections -pipe -isystem <prefix>/include -I<prefix>/_build_env/include -fdebug-prefix-map=<prefix>/work=/usr/local/src/conda/siesta-5.2.2 -fdebug-prefix-map=<prefix>=/usr/local/src/conda-prefix -I<prefix>/lib -fallow-argument-mismatch -O3
Parallelisations: none
NetCDF support
NetCDF-4 support
Lua support
DFT-D3 support

Runtime information:
* Directory : /v/rconte1/dimer/distance2/runs/run070
* Running in serial mode.
>> Start of run:  28-MAR-2025  16:19:07

                           *********************** 
                           *  WELCOME TO SIESTA  * 
                           *********************** 

 NOTE: Siesta V5 introduces some new defaults for basis-set generation
 NOTE: which might lead to slightly different numerical results.
 NOTE: Please see the manual for full details and compatibility measures.


reinit: Reading from standard input
reinit: Dumping input in INPUT_TMP.72810
************************** Dump of input data file ****************************
#DON'T FORGET TO PUT THE .PSF FILE TO THE SAME DIRECTORY
SystemName          Dimer of Carbon                     # Name of the system we want to investigate
SystemLabel         dimer_distance                           # name of output files
NumberOfAtoms       2                                # how many number in the unit cell? Dimer -> 2 atoms
NumberOfSpecies     1                                # how many different type of atoms? Dimer -> 1
%block ChemicalSpeciesLabel
 1  6  C        # Species index, atomic number, species label
%endblock ChemicalSpeciesLabel
# ----------------------
# STRUCTURAL INFORMATION
# ----------------------
LatticeConstant     1.0 Ang
%block LatticeVectors
   10.000000    0.000000    0.000000
    0.000000   10.000000    0.000000
    0.000000    0.000000   10.000000
%endblock LatticeVectors
AtomicCoordinatesFormat Ang
%block AtomicCoordinatesAndAtomicSpecies
    0.000000     0.000000     0.000000   1
    2.400     0.000000     0.000000   1
%endblock AtomicCoordinatesAndAtomicSpecies
# --
# XC
# --
xc.functional	        GGA	
xc.authors		PBE	
# ----
# GRID
# ----
# MeshCutoff 		200. Ry
# ---------------
# Solution Method
# ---------------
SolutionMethod		diagon
ElectronicTemperature	300 K	
# ---
# SCF
# ---
SCF.DM.Tolerance         5.E-6
SCF.H.Tolerance          5.E-5 eV
SCF.Mix                  Hamiltonian
# SCF.Mix.Spin             all
SCF.Mixer.Method         Pulay
SCF.Mixer.Weight         0.15
SCF.Mixer.Kick           10
SCF.Mixer.History        20
MaxSCFIterations	     200
DM.UseSaveDM	     	 T
SaveHS                   T
# --------------
# OUTPUT OPTIONS
# --------------
WriteEigenvalues       F
WriteForces            T
WriteCoorStep          T
WriteCoorXmol          T     # generate the .xyz file 
WriteMDXmol            T     # generate the .ani file 
WriteMullikenPop       1
Write.HirshfeldPop     T
Write.VoronoiPop       T
Write.DM.NetCDF        T
Write.DMHS.NetCDF      T
************************** End of input data file *****************************

reinit: -----------------------------------------------------------------------
reinit: System Name: Dimer of Carbon
reinit: -----------------------------------------------------------------------
reinit: System Label: dimer_distance
reinit: -----------------------------------------------------------------------

initatom: Reading input for the pseudopotentials and atomic orbitals ----------
Species number:   1 Atomic number:    6 Label: C

Ground state valence configuration (from tables):   2s02  2p02  3d00  4f00

---- Processing specs for species: C
Reading pseudopotential information in formatted form from:
  C.psf

---- Pseudopotential check for  C

Pseudized shells:
2s( 2.00) rc: 1.56
2p( 2.00) rc: 1.56
3d( 0.00) rc: 1.56
4f( 0.00) rc: 1.56
Valence configuration for ps generation: (assumed as above)
For C, standard SIESTA heuristics set lmxkb to 3
 (one more than the basis l, including polarization orbitals).
Use PS.lmax or PS.KBprojectors blocks to override.

<basis_specs>
===============================================================================
C                    Z=   6    Mass=  12.011        Charge= 0.17977+309
Lmxo=2 Lmxkb= 3    BasisType=split      Semic=F
L=0  Nsemic=0  Cnfigmx=2
          i=1  nzeta=2  polorb=0  (2s)
            splnorm:   0.15000    
               vcte:    40.000    
               rinn:  -0.90000    
               qcoe:    0.0000    
               qyuk:    0.0000    
               qwid:   0.10000E-01
                rcs:    0.0000      0.0000    
            lambdas:    1.0000      1.0000    
L=1  Nsemic=0  Cnfigmx=2
          i=1  nzeta=2  polorb=1  (2p)  (to be polarized perturbatively)
            splnorm:   0.15000    
               vcte:    40.000    
               rinn:  -0.90000    
               qcoe:    0.0000    
               qyuk:    0.0000    
               qwid:   0.10000E-01
                rcs:    0.0000      0.0000    
            lambdas:    1.0000      1.0000    
L=2  Nsemic=0  Cnfigmx=3
          i=1  nzeta=0  polorb=0  (3d)  (perturbative polarization orbital) (from 2p)
-------------------------------------------------------------------------------
L=0  Nkbl=1  erefs: 0.17977+309
L=1  Nkbl=1  erefs: 0.17977+309
L=2  Nkbl=1  erefs: 0.17977+309
L=3  Nkbl=1  erefs: 0.17977+309
===============================================================================
</basis_specs>

Using PAO.SplitTailNorm
atom: Called for C                     (Z =   6)
Maximum radius (at nrval) set to   50.00000 8518

read_vps: Pseudopotential generation method:
read_vps: ATM 3.2.2 Troullier-Martins                       
Valence charge in pseudo generation:    4.00000

xc_check: Exchange-correlation functional:
xc_check: GGA Perdew, Burke & Ernzerhof 1996
V l=0 = -2*Zval/r beyond r=  1.5347
V l=1 = -2*Zval/r beyond r=  1.5332
V l=2 = -2*Zval/r beyond r=  1.5347
V l=3 = -2*Zval/r beyond r=  1.5347
All V_l potentials equal beyond r=  1.4890
This should be close to max(r_c) in ps generation
All pots = -2*Zval/r beyond r=  1.5347
Using small-core scheme (local charge) for Vlocal

VLOCAL_FROM_CHLOCAL: 99.0% of the norm of Vloc inside     19.577 Ry
VLOCAL_FROM_CHLOCAL: 99.9% of the norm of Vloc inside     44.617 Ry
atom: Maximum radius for chlocal:    1.77931
atom: Maximum radius for r*vlocal+2*Zval:    1.63022

KBgen: Kleinman-Bylander projectors: 
GHOST: No ghost state for L =  0
   l= 0   rc=  1.646704   el= -1.010689   Ekb=  5.277734   kbcos=  0.315993
GHOST: No ghost state for L =  1
   l= 1   rc=  1.648361   el= -0.388490   Ekb= -4.115733   kbcos= -0.351483
GHOST: No ghost state for L =  2
   l= 2   rc=  1.735131   el=  0.012917   Ekb= -1.012311   kbcos= -0.009283
GHOST: No ghost state for L =  3
   l= 3   rc=  1.777521   el=  0.019225   Ekb= -0.424772   kbcos= -0.001204

KBgen: Total number of Kleinman-Bylander projectors:  16
atom: -------------------------------------------------------------------------

atom: SANKEY-TYPE ORBITALS:
atom: Selected multiple-zeta basis: split     

SPLIT: Orbitals with angular momentum L= 0

SPLIT: Basis orbitals for state 2s

SPLIT: PAO cut-off radius determined from an
SPLIT: energy shift=  0.010000 Ry
Split based on tail norm

   izeta = 1
                 lambda =    1.000000
                     rc =    4.484389
                 energy =   -0.999400
                kinetic =    0.879719
    potential(screened) =   -1.879119
       potential(ionic) =   -5.474723

   izeta = 2
                 rmatch =    3.048210
              splitnorm =    0.150000
                 energy =   -0.737057
                kinetic =    1.553917
    potential(screened) =   -2.290974
       potential(ionic) =   -6.191799

SPLIT: Orbitals with angular momentum L= 1

SPLIT: Basis orbitals for state 2p

SPLIT: PAO cut-off radius determined from an
SPLIT: energy shift=  0.010000 Ry
Split based on tail norm

   izeta = 1
                 lambda =    1.000000
                     rc =    5.435719
                 energy =   -0.377283
                kinetic =    2.459011
    potential(screened) =   -2.836294
       potential(ionic) =   -6.303833

   izeta = 2
                 rmatch =    3.691839
              splitnorm =    0.150000
                 energy =   -0.247686
                kinetic =    3.567780
    potential(screened) =   -3.815466
       potential(ionic) =   -7.634895

POLgen: Perturbative polarization orbital with L=  2

POLgen: Polarization orbital for state 2p
Split based on tail norm

   izeta = 1
                     rc =    5.435719
                 energy =    1.173953
                kinetic =    2.358612
    potential(screened) =   -1.184659
       potential(ionic) =   -4.054396
atom: Total number of Sankey-type orbitals: 13

atm_pop: Valence configuration (for local Pseudopot. screening):
 2s( 2.00)                                                            
 2p( 2.00)                                                            
 3d( 0.00)                                                            
Vna: chval, zval:    4.00000   4.00000

Vna:  Cut-off radius for the neutral-atom potential:   5.435719

atom: _________________________________________________________________________

prinput: Basis input 

PAO.BasisType split     

%block ChemicalSpeciesLabel
    1    6 C                       # Species index, atomic number, species label
%endblock ChemicalSpeciesLabel

%block PAO.Basis                 # Define Basis set
# WARNING: This information might be incomplete!
C                     2                    # Species label, number of l-shells
 n=2   0   2                         # n, l, Nzeta 
   4.484      3.048   
   1.000      1.000   
 n=2   1   2 P   1                   # n, l, Nzeta, Polarization, NzetaPol
   5.436      3.692   
   1.000      1.000   
%endblock PAO.Basis

prinput: ----------------------------------------------------------------------

Dumping basis to NetCDF file C.ion.nc
coor:   Atomic-coordinates input format  =     Cartesian coordinates
coor:                                          (in Angstroms)

siesta: Atomic coordinates (Bohr) and species
siesta:      0.00000   0.00000   0.00000  1        1
siesta:      4.53534   0.00000   0.00000  1        2

siesta: System type = molecule  

initatomlists: Number of atoms, orbitals, and projectors:      2    26    32

coxmol: Writing XMOL coordinates into file dimer_distance.xyz                                                                                                                                                                                                                  

siesta: ******************** Simulation parameters ****************************
siesta:
siesta: The following are some of the parameters of the simulation.
siesta: A complete list of the parameters used, including default values,
siesta: can be found in file out.fdf
siesta:
redata: Spin configuration                          = none
redata: Number of spin components                   = 1
redata: Time-Reversal Symmetry                      = T
redata: Spin spiral                                 = F
redata: Long output                                 =   F
redata: Number of Atomic Species                    =        1
redata: Charge density info will appear in .RHO file
redata: Write Mulliken charges (when)               = geometry+end
redata: Write Mulliken Pop.                         = Atomic and Orbital charges
redata: Write Hirshfeld charges (when)              = end
redata: Write Voronoi charges (when)                = end
redata: Write spin charge (when)                    = none
redata: Matel table size (NRTAB)                    =     1024
redata: Mesh Cutoff                                 =   300.0000 Ry
redata: Net charge of the system                    =     0.0000 |e|
redata: Min. number of SCF Iter                     =        0
redata: Max. number of SCF Iter                     =      200
redata: SCF convergence failure will abort job
redata: SCF mix quantity                            = Hamiltonian
redata: Mix DM or H after convergence               =   F
redata: Recompute H after scf cycle                 =   F
redata: Mix DM in first SCF step                    =   T
redata: Write Pulay info on disk                    =   F
redata: New DM Occupancy tolerance                  = 0.000000000001
redata: No kicks to SCF
redata: DM Mixing Weight for Kicks                  =     0.5000
redata: Require Harris convergence for SCF          =   F
redata: Harris energy tolerance for SCF             =     0.000100 eV
redata: Require DM convergence for SCF              =   T
redata: DM tolerance for SCF                        =     0.000005
redata: Require EDM convergence for SCF             =   F
redata: EDM tolerance for SCF                       =     0.001000 eV
redata: Require H convergence for SCF               =   T
redata: Hamiltonian tolerance for SCF               =     0.000050 eV
redata: Require (free) Energy convergence for SCF   =   F
redata: (free) Energy tolerance for SCF             =     0.000100 eV
redata: Using DFT-D3 dispersion                     =   F
redata: Using Saved Data (generic)                  =   F
redata: Use continuation files for DM               =   T
redata: Neglect nonoverlap interactions             =   F
redata: Method of Calculation                       = Diagonalization
redata: Electronic Temperature                      =   300.0000 K
redata: Fix the spin of the system                  =   F
redata: Max. number of TDED Iter                    =        1
redata: Number of TDED substeps                     =        3
redata: Dynamics option                             = Single-point calculation
mix.SCF: Pulay mixing                            = Pulay
mix.SCF:    Variant                              = stable
mix.SCF:    History steps                        = 9
mix.SCF:    Linear mixing weight                 =     0.150000
mix.SCF:    Mixing weight                        =     0.150000
mix.SCF:    SVD condition                        = 0.1000E-07
mix.SCF:    Restart steps                        = 9
mix.SCF:    Restart save steps                   = 1
mix.SCF:    Number of mixing iterations          = 9
mix.SCF:    Following mixer                      = Linear-Kick
mix.SCF: Linear mixing                           = Linear-Kick
mix.SCF:    Mixing weight                        =     0.500000
mix.SCF:    Number of mixing iterations          = 1
mix.SCF:    Following mixer                      = Pulay
redata: Save all siesta data in one NC              =   F
redata: ***********************************************************************

%block SCF.Mixers
  Pulay
  Linear-Kick
%endblock SCF.Mixers

%block SCF.Mixer.Pulay
  # Mixing method
  method pulay
  variant stable

  # Mixing options
  weight 0.1500
  weight.linear 0.1500
  history 9
  restart 9
  restart.save 1

  # Continuation options
  iterations 9
  next Linear-Kick
%endblock SCF.Mixer.Pulay

%block SCF.Mixer.Linear-Kick
  # Mixing method
  method linear

  # Mixing options
  weight 0.5000

  # Continuation options
  iterations 1
  next Pulay
%endblock SCF.Mixer.Linear-Kick

DM_history_depth set to one: no extrapolation allowed by default for geometry relaxation
Size of DM history Fstack: 1
Total number of electrons:     8.000000
Total ionic charge:     8.000000

siesta: k-grid: Number of k-points = 1
siesta: k-point is Gamma-only

diag: Algorithm                                     = D&C
diag: Used triangular part                          = Lower
diag: Absolute tolerance                            =  0.100E-15
diag: Orthogonalization factor                      =  0.100E-05
diag: Memory factor                                 =  1.0000


ts: **************************************************************
ts: Save H and S matrices                           =    F
ts: Save DM and EDM matrices                        =    F
ts: Only save the overlap matrix S                  =    F
ts: **************************************************************

************************ Begin: TS CHECKS AND WARNINGS ************************
************************ End: TS CHECKS AND WARNINGS **************************


                     ====================================
                        Single-point calculation
                     ====================================

outcoor: Atomic coordinates (Ang):                          
    0.00000000    0.00000000    0.00000000   1       1  C
    2.40000000    0.00000000    0.00000000   1       2  C

outcell: Unit cell vectors (Ang):
       10.000000    0.000000    0.000000
        0.000000   10.000000    0.000000
        0.000000    0.000000   10.000000

outcell: Cell vector modules (Ang)   :   10.000000   10.000000   10.000000
outcell: Cell angles (23,13,12) (deg):     90.0000     90.0000     90.0000
outcell: Cell volume (Ang**3)        :   1000.0000
<dSpData1D:S at geom step 0
  <sparsity:sparsity for geom step 0
    nrows_g=26 nrows=26 sparsity=1.0000 nnzs=676, refcount: 7>
  <dData1D:(new from dSpData1D) n=676, refcount: 1>
refcount: 1>
new_DM -- step:     1
Initializing Density Matrix...

Attempting to read DM from file... Failed...
DM filled with atomic data:
<dSpData2D:DM initialized from atoms
  <sparsity:sparsity for geom step 0
    nrows_g=26 nrows=26 sparsity=1.0000 nnzs=676, refcount: 8>
  <dData2D:DM n=676 m=1, refcount: 1>
refcount: 1>
No. of atoms with KB's overlaping orbs in proc 0. Max # of overlaps:       2      26

InitMesh: MESH = 108 x 108 x 108 = 1259712
InitMesh: Mesh cutoff (required, used) =   300.000   322.366 Ry
New grid distribution [1]: sub = 2

stepf: Fermi-Dirac step function

siesta: Program's energy decomposition (eV):
siesta: Ebs     =       -75.460680
siesta: Eions   =       522.735435
siesta: Ena     =       129.730149
siesta: Ekin    =       164.560213
siesta: Enl     =         3.080276
siesta: Eso     =         0.000000
siesta: Edftu   =         0.000000
siesta: DEna    =         8.595247
siesta: DUscf   =         0.649838
siesta: DUext   =         0.000000
siesta: Ex      =       -71.483298
siesta: Ec      =        -6.597517
siesta: Exc     =       -78.080816
siesta: EbV     =         0.000000
siesta: eta*DQ  =         0.000000
siesta: Emadel  =         0.000000
siesta: Emeta   =         0.000000
siesta: Emolmec =         0.000000
siesta: Ekinion =         0.000000
siesta: Eharris =      -296.977178
siesta: Etot    =      -294.200526
siesta: FreeEng =      -294.272203

        iscf     Eharris(eV)        E_KS(eV)     FreeEng(eV)     dDmax    Ef(eV) dHmax(eV)
   scf:    1     -296.977178     -294.200526     -294.272203  0.759795 -4.523131  1.072216
timer: Routine,Calls,Time,% = IterSCF        1       0.513  21.07
   scf:    2     -294.241148     -294.221339     -294.293016  0.017297 -4.646145  0.822515
   scf:    3     -294.271237     -294.250793     -294.322470  0.055071 -5.025474  0.059402
   scf:    4     -294.252425     -294.251704     -294.323381  0.012053 -5.046127  0.039708
   scf:    5     -294.251711     -294.251719     -294.323396  0.000781 -5.043812  0.026168
   scf:    6     -294.251636     -294.251690     -294.323367  0.004229 -5.015560  0.046966
   scf:    7     -294.251803     -294.251758     -294.323435  0.003218 -5.039035  0.000188
   scf:    8     -294.251758     -294.251758     -294.323435  0.000075 -5.039054  0.000151
mix: Pulay -- inversion failed, > SVD [rank/size] 6 / 7
   scf:    9     -294.251758     -294.251758     -294.323435  0.000009 -5.038995  0.000014
mix: Pulay -- inversion failed, > SVD [rank/size] 6 / 8
mix: Pulay -- resetting history
mix: switching mixer --> Linear-Kick
   scf:   10     -294.251758     -294.251758     -294.323435  0.000000 -5.038994  0.000012

SCF Convergence by DM+H criterion
max |DM_out - DM_in|         :     0.0000002011
max |H_out - H_in|      (eV) :     0.0000118954
SCF cycle converged after 10 iterations

Using DM_out to compute the final energy and forces
No. of atoms with KB's overlaping orbs in proc 0. Max # of overlaps:       2      26

siesta: E_KS(eV) =             -294.2518

siesta: E_KS - E_eggbox =      -294.2518

siesta: Atomic forces (eV/Ang):
     1    3.947453   -0.000000   -0.000000
     2   -3.944400   -0.000000   -0.000000
----------------------------------------
   Tot    0.003053   -0.000000   -0.000000
----------------------------------------
   Max    3.947453
   Res    2.278182    sqrt( Sum f_i^2 / 3N )
----------------------------------------
   Max    3.947453    constrained

Stress tensor Voigt[x,y,z,yz,xz,xy] (kbar):       15.20        0.00        0.00        0.00        0.00        0.00
(Free)E + p*V (eV/cell)     -297.4868
Target enthalpy (eV/cell)     -294.3234

mulliken: Atomic and Orbital Populations:

Species: C                   
Atom  Qatom  Qorb
               2s      2s      2py     2pz     2px     2py     2pz     2px     
               3Pdxy   3Pdyz   3Pdz2   3Pdxz   3Pdx2-y2
   1  4.000   1.938   0.020   0.527   0.527   1.022  -0.029  -0.029   0.012
              0.001   0.000   0.002   0.001   0.006
   2  4.000   1.938   0.020   0.527   0.527   1.022  -0.029  -0.029   0.012
              0.001   0.000   0.002   0.001   0.006

mulliken: Qtot =        8.000

Mulliken Atomic Populations:
Atom #   charge [q] valence [e]  Species
     1     0.000015    3.999985  C
     2    -0.000015    4.000015  C
--------------------
 Total     0.000000

coxmol: Writing XMOL coordinates into file dimer_distance.xyz                                                                                                                                                                                                                  

siesta: Program's energy decomposition (eV):
siesta: Ebs     =       -73.000293
siesta: Eions   =       522.735435
siesta: Ena     =       129.730149
siesta: Ekin    =       167.861856
siesta: Enl     =         2.882127
siesta: Eso     =         0.000000
siesta: Edftu   =         0.000000
siesta: DEna    =         6.311324
siesta: DUscf   =         0.484515
siesta: DUext   =         0.000000
siesta: Ex      =       -72.168738
siesta: Ec      =        -6.617557
siesta: Exc     =       -78.786295
siesta: EbV     =         0.000000
siesta: eta*DQ  =         0.000000
siesta: Emadel  =         0.000000
siesta: Emeta   =         0.000000
siesta: Emolmec =         0.000000
siesta: Ekinion =         0.000000
siesta: Eharris =      -294.251758
siesta: Etot    =      -294.251758
siesta: FreeEng =      -294.323435

siesta: Final energy (eV):
siesta:  Band Struct. =     -73.000293
siesta:       Kinetic =     167.861856
siesta:       Hartree =     214.321637
siesta:         Edftu =       0.000000
siesta:       Eso     =       0.000000
siesta:    Ext. field =       0.000000
siesta:         Exch. =     -72.168738
siesta:         Corr. =      -6.617557
siesta:     Bulk bias =       0.000000
siesta:   Exch.-corr. =     -78.786295
siesta:  Ion-electron =    -567.601043
siesta:       Ion-ion =     -30.047913
siesta:       Ekinion =       0.000000
siesta: D3 dispersion =       0.000000
siesta:         Total =    -294.251758
siesta:         Fermi =      -5.038994

siesta: Atomic forces (eV/Ang):
siesta:      1    3.947453   -0.000000   -0.000000
siesta:      2   -3.944400   -0.000000   -0.000000
siesta: ----------------------------------------
siesta:    Tot    0.003053   -0.000000   -0.000000

siesta: Stress tensor (static) (eV/Ang**3):
siesta:     0.009490   -0.000000    0.000000
siesta:     0.000000    0.000000    0.000000
siesta:     0.000000    0.000000    0.000000

siesta: Cell volume =       1000.000000 Ang**3

siesta: Pressure (static):
siesta:                Solid            Molecule  Units
siesta:          -0.00003445         -0.00000007  Ry/Bohr**3
siesta:          -0.00316333         -0.00000659  eV/Ang**3
siesta:          -5.06821937         -0.01056213  kBar
(Free)E+ p_basis*V_orbitals  =        -293.564030
(Free)Eharris+ p_basis*V_orbitals  =        -293.564030

mulliken: Atomic and Orbital Populations:

Species: C                   
Atom  Qatom  Qorb
               2s      2s      2py     2pz     2px     2py     2pz     2px     
               3Pdxy   3Pdyz   3Pdz2   3Pdxz   3Pdx2-y2
   1  4.000   1.938   0.020   0.527   0.527   1.022  -0.029  -0.029   0.012
              0.001   0.000   0.002   0.001   0.006
   2  4.000   1.938   0.020   0.527   0.527   1.022  -0.029  -0.029   0.012
              0.001   0.000   0.002   0.001   0.006

mulliken: Qtot =        8.000

Mulliken Atomic Populations:
Atom #   charge [q] valence [e]  Species
     1     0.000015    3.999985  C
     2    -0.000015    4.000015  C
--------------------
 Total     0.000000

siesta: Electric dipole (a.u.)  =   -0.000026   -0.000000   -0.000000
siesta: Electric dipole (Debye) =   -0.000066   -0.000000   -0.000000

Hirshfeld Atomic Populations:
Atom #   charge [q] valence [e]  Species
     1     0.000003    3.999997  C
     2    -0.000005    4.000005  C
--------------------
 Total    -0.000001

Voronoi Atomic Populations:
Atom #   charge [q] valence [e]  Species
     1     0.011556    3.988444  C
     2    -0.011558    4.011558  C
--------------------
 Total    -0.000001

cite: Please indicate the Siesta version in published work: 5.2.2
cite: This calculation has made use of features in the following articles
cite: which we encourage you to cite in published work.
cite: (Please see "dimer_distance.bib" for a BibTeX file.)
        Primary SIESTA paper
          DOI: www.doi.org/10.1088/0953-8984/14/11/302


timer: Elapsed wall time (sec) =       8.904
timer: CPU execution times (sec):

Routine            Calls   Time/call    Tot.time        %
siesta                 1       8.614       8.614   100.00
Setup                  1       0.156       0.156     1.81
bands                  1       0.000       0.000     0.00
KSV_init               1       0.000       0.000     0.00
IterGeom               1       7.690       7.690    89.27
geom_init              1       1.764       1.764    20.48
state_init             1       0.157       0.157     1.82
hsparse                1       0.000       0.000     0.00
overlap                1       0.155       0.155     1.80
Setup_H0               1       1.111       1.111    12.90
naefs                  2       0.000       0.000     0.00
dnaefs                 2       0.000       0.000     0.00
MolMec                 2       0.000       0.000     0.00
kinefsm                2       0.075       0.149     1.73
nlefsm                 2       0.236       0.472     5.48
DHSCF_Init             1       0.491       0.491     5.70
DHSCF1                 1       0.047       0.047     0.55
InitMesh               1       0.047       0.047     0.55
INITMESH               1       0.000       0.000     0.00
DHSCF2                 1       0.444       0.444     5.15
REMESH                 1       0.016       0.016     0.19
REORD                 35       0.003       0.099     1.15
PHION                  1       0.260       0.260     3.02
COMM_BSC              56       0.002       0.116     1.35
POISON                14       0.108       1.514    17.58
fft                   28       0.037       1.031    11.97
setup_H               11       0.509       5.603    65.04
DHSCF                 13       0.549       7.139    82.88
DHSCF3                13       0.525       6.831    79.30
rhoofd                13       0.033       0.427     4.96
XC                    13       0.301       3.910    45.39
GXC-CellXC            13       0.290       3.774    43.81
gridxc@cellXC         13       0.290       3.774    43.81
vmat                  12       0.024       0.285     3.31
IterSCF               10       0.512       5.116    59.39
compute_dm            10       0.000       0.004     0.04
diagon                10       0.000       0.003     0.04
r-eigvec              10       0.000       0.003     0.03
r-buildHS             10       0.000       0.000     0.00
rdiag                 10       0.000       0.002     0.03
rdiag1                10       0.000       0.000     0.00
rdiag2                10       0.000       0.000     0.00
rdiag3                10       0.000       0.002     0.02
rdiag4                10       0.000       0.000     0.00
r-buildD              10       0.000       0.000     0.00
MIXER                  9       0.000       0.001     0.01
PostSCF                1       0.809       0.809     9.39
FINAL_HF               1       0.809       0.809     9.39
DHSCF4                 1       0.308       0.308     3.57
dfscf                  1       0.265       0.265     3.08
overfsm                1       0.000       0.000     0.00
writeHSX               1       0.000       0.000     0.00
state_analysis         1       0.001       0.001     0.01
siesta_move            1       0.000       0.000     0.00
Analysis               1       0.766       0.766     8.89
optical                1       0.000       0.000     0.00
partial-charges        1       0.298       0.298     3.46
  

>> End of run:  28-MAR-2025  16:19:15
Job completed
