Executable      : siesta
Version         : 5.2.2
Architecture    : x86_64
Compiler version: GNU-13.3.0
Compiler flags  : -march=nocona -mtune=haswell -ftree-vectorize -fPIC -fstack-protector-strong -fno-plt -O2 -ffunction-sections -pipe -isystem <prefix>/include -I<prefix>/_build_env/include -fdebug-prefix-map=<prefix>/work=/usr/local/src/conda/siesta-5.2.2 -fdebug-prefix-map=<prefix>=/usr/local/src/conda-prefix -I<prefix>/lib -fallow-argument-mismatch -O3
Parallelisations: none
NetCDF support
NetCDF-4 support
Lua support
DFT-D3 support

Runtime information:
* Directory : /v/rconte1/dimer/distance2/runs/run031
* Running in serial mode.
>> Start of run:  28-MAR-2025  16:12:17

                           *********************** 
                           *  WELCOME TO SIESTA  * 
                           *********************** 

 NOTE: Siesta V5 introduces some new defaults for basis-set generation
 NOTE: which might lead to slightly different numerical results.
 NOTE: Please see the manual for full details and compatibility measures.


reinit: Reading from standard input
reinit: Dumping input in INPUT_TMP.63405
************************** Dump of input data file ****************************
#DON'T FORGET TO PUT THE .PSF FILE TO THE SAME DIRECTORY
SystemName          Dimer of Carbon                     # Name of the system we want to investigate
SystemLabel         dimer_distance                           # name of output files
NumberOfAtoms       2                                # how many number in the unit cell? Dimer -> 2 atoms
NumberOfSpecies     1                                # how many different type of atoms? Dimer -> 1
%block ChemicalSpeciesLabel
 1  6  C        # Species index, atomic number, species label
%endblock ChemicalSpeciesLabel
# ----------------------
# STRUCTURAL INFORMATION
# ----------------------
LatticeConstant     1.0 Ang
%block LatticeVectors
   10.000000    0.000000    0.000000
    0.000000   10.000000    0.000000
    0.000000    0.000000   10.000000
%endblock LatticeVectors
AtomicCoordinatesFormat Ang
%block AtomicCoordinatesAndAtomicSpecies
    0.000000     0.000000     0.000000   1
    1.620     0.000000     0.000000   1
%endblock AtomicCoordinatesAndAtomicSpecies
# --
# XC
# --
xc.functional	        GGA	
xc.authors		PBE	
# ----
# GRID
# ----
# MeshCutoff 		200. Ry
# ---------------
# Solution Method
# ---------------
SolutionMethod		diagon
ElectronicTemperature	300 K	
# ---
# SCF
# ---
SCF.DM.Tolerance         5.E-6
SCF.H.Tolerance          5.E-5 eV
SCF.Mix                  Hamiltonian
# SCF.Mix.Spin             all
SCF.Mixer.Method         Pulay
SCF.Mixer.Weight         0.15
SCF.Mixer.Kick           10
SCF.Mixer.History        20
MaxSCFIterations	     200
DM.UseSaveDM	     	 T
SaveHS                   T
# --------------
# OUTPUT OPTIONS
# --------------
WriteEigenvalues       F
WriteForces            T
WriteCoorStep          T
WriteCoorXmol          T     # generate the .xyz file 
WriteMDXmol            T     # generate the .ani file 
WriteMullikenPop       1
Write.HirshfeldPop     T
Write.VoronoiPop       T
Write.DM.NetCDF        T
Write.DMHS.NetCDF      T
************************** End of input data file *****************************

reinit: -----------------------------------------------------------------------
reinit: System Name: Dimer of Carbon
reinit: -----------------------------------------------------------------------
reinit: System Label: dimer_distance
reinit: -----------------------------------------------------------------------

initatom: Reading input for the pseudopotentials and atomic orbitals ----------
Species number:   1 Atomic number:    6 Label: C

Ground state valence configuration (from tables):   2s02  2p02  3d00  4f00

---- Processing specs for species: C
Reading pseudopotential information in formatted form from:
  C.psf

---- Pseudopotential check for  C

Pseudized shells:
2s( 2.00) rc: 1.56
2p( 2.00) rc: 1.56
3d( 0.00) rc: 1.56
4f( 0.00) rc: 1.56
Valence configuration for ps generation: (assumed as above)
For C, standard SIESTA heuristics set lmxkb to 3
 (one more than the basis l, including polarization orbitals).
Use PS.lmax or PS.KBprojectors blocks to override.

<basis_specs>
===============================================================================
C                    Z=   6    Mass=  12.011        Charge= 0.17977+309
Lmxo=2 Lmxkb= 3    BasisType=split      Semic=F
L=0  Nsemic=0  Cnfigmx=2
          i=1  nzeta=2  polorb=0  (2s)
            splnorm:   0.15000    
               vcte:    40.000    
               rinn:  -0.90000    
               qcoe:    0.0000    
               qyuk:    0.0000    
               qwid:   0.10000E-01
                rcs:    0.0000      0.0000    
            lambdas:    1.0000      1.0000    
L=1  Nsemic=0  Cnfigmx=2
          i=1  nzeta=2  polorb=1  (2p)  (to be polarized perturbatively)
            splnorm:   0.15000    
               vcte:    40.000    
               rinn:  -0.90000    
               qcoe:    0.0000    
               qyuk:    0.0000    
               qwid:   0.10000E-01
                rcs:    0.0000      0.0000    
            lambdas:    1.0000      1.0000    
L=2  Nsemic=0  Cnfigmx=3
          i=1  nzeta=0  polorb=0  (3d)  (perturbative polarization orbital) (from 2p)
-------------------------------------------------------------------------------
L=0  Nkbl=1  erefs: 0.17977+309
L=1  Nkbl=1  erefs: 0.17977+309
L=2  Nkbl=1  erefs: 0.17977+309
L=3  Nkbl=1  erefs: 0.17977+309
===============================================================================
</basis_specs>

Using PAO.SplitTailNorm
atom: Called for C                     (Z =   6)
Maximum radius (at nrval) set to   50.00000 8518

read_vps: Pseudopotential generation method:
read_vps: ATM 3.2.2 Troullier-Martins                       
Valence charge in pseudo generation:    4.00000

xc_check: Exchange-correlation functional:
xc_check: GGA Perdew, Burke & Ernzerhof 1996
V l=0 = -2*Zval/r beyond r=  1.5347
V l=1 = -2*Zval/r beyond r=  1.5332
V l=2 = -2*Zval/r beyond r=  1.5347
V l=3 = -2*Zval/r beyond r=  1.5347
All V_l potentials equal beyond r=  1.4890
This should be close to max(r_c) in ps generation
All pots = -2*Zval/r beyond r=  1.5347
Using small-core scheme (local charge) for Vlocal

VLOCAL_FROM_CHLOCAL: 99.0% of the norm of Vloc inside     19.577 Ry
VLOCAL_FROM_CHLOCAL: 99.9% of the norm of Vloc inside     44.617 Ry
atom: Maximum radius for chlocal:    1.77931
atom: Maximum radius for r*vlocal+2*Zval:    1.63022

KBgen: Kleinman-Bylander projectors: 
GHOST: No ghost state for L =  0
   l= 0   rc=  1.646704   el= -1.010689   Ekb=  5.277734   kbcos=  0.315993
GHOST: No ghost state for L =  1
   l= 1   rc=  1.648361   el= -0.388490   Ekb= -4.115733   kbcos= -0.351483
GHOST: No ghost state for L =  2
   l= 2   rc=  1.735131   el=  0.012917   Ekb= -1.012311   kbcos= -0.009283
GHOST: No ghost state for L =  3
   l= 3   rc=  1.777521   el=  0.019225   Ekb= -0.424772   kbcos= -0.001204

KBgen: Total number of Kleinman-Bylander projectors:  16
atom: -------------------------------------------------------------------------

atom: SANKEY-TYPE ORBITALS:
atom: Selected multiple-zeta basis: split     

SPLIT: Orbitals with angular momentum L= 0

SPLIT: Basis orbitals for state 2s

SPLIT: PAO cut-off radius determined from an
SPLIT: energy shift=  0.010000 Ry
Split based on tail norm

   izeta = 1
                 lambda =    1.000000
                     rc =    4.484389
                 energy =   -0.999400
                kinetic =    0.879719
    potential(screened) =   -1.879119
       potential(ionic) =   -5.474723

   izeta = 2
                 rmatch =    3.048210
              splitnorm =    0.150000
                 energy =   -0.737057
                kinetic =    1.553917
    potential(screened) =   -2.290974
       potential(ionic) =   -6.191799

SPLIT: Orbitals with angular momentum L= 1

SPLIT: Basis orbitals for state 2p

SPLIT: PAO cut-off radius determined from an
SPLIT: energy shift=  0.010000 Ry
Split based on tail norm

   izeta = 1
                 lambda =    1.000000
                     rc =    5.435719
                 energy =   -0.377283
                kinetic =    2.459011
    potential(screened) =   -2.836294
       potential(ionic) =   -6.303833

   izeta = 2
                 rmatch =    3.691839
              splitnorm =    0.150000
                 energy =   -0.247686
                kinetic =    3.567780
    potential(screened) =   -3.815466
       potential(ionic) =   -7.634895

POLgen: Perturbative polarization orbital with L=  2

POLgen: Polarization orbital for state 2p
Split based on tail norm

   izeta = 1
                     rc =    5.435719
                 energy =    1.173953
                kinetic =    2.358612
    potential(screened) =   -1.184659
       potential(ionic) =   -4.054396
atom: Total number of Sankey-type orbitals: 13

atm_pop: Valence configuration (for local Pseudopot. screening):
 2s( 2.00)                                                            
 2p( 2.00)                                                            
 3d( 0.00)                                                            
Vna: chval, zval:    4.00000   4.00000

Vna:  Cut-off radius for the neutral-atom potential:   5.435719

atom: _________________________________________________________________________

prinput: Basis input 

PAO.BasisType split     

%block ChemicalSpeciesLabel
    1    6 C                       # Species index, atomic number, species label
%endblock ChemicalSpeciesLabel

%block PAO.Basis                 # Define Basis set
# WARNING: This information might be incomplete!
C                     2                    # Species label, number of l-shells
 n=2   0   2                         # n, l, Nzeta 
   4.484      3.048   
   1.000      1.000   
 n=2   1   2 P   1                   # n, l, Nzeta, Polarization, NzetaPol
   5.436      3.692   
   1.000      1.000   
%endblock PAO.Basis

prinput: ----------------------------------------------------------------------

Dumping basis to NetCDF file C.ion.nc
coor:   Atomic-coordinates input format  =     Cartesian coordinates
coor:                                          (in Angstroms)

siesta: Atomic coordinates (Bohr) and species
siesta:      0.00000   0.00000   0.00000  1        1
siesta:      3.06136   0.00000   0.00000  1        2

siesta: System type = molecule  

initatomlists: Number of atoms, orbitals, and projectors:      2    26    32

coxmol: Writing XMOL coordinates into file dimer_distance.xyz                                                                                                                                                                                                                  

siesta: ******************** Simulation parameters ****************************
siesta:
siesta: The following are some of the parameters of the simulation.
siesta: A complete list of the parameters used, including default values,
siesta: can be found in file out.fdf
siesta:
redata: Spin configuration                          = none
redata: Number of spin components                   = 1
redata: Time-Reversal Symmetry                      = T
redata: Spin spiral                                 = F
redata: Long output                                 =   F
redata: Number of Atomic Species                    =        1
redata: Charge density info will appear in .RHO file
redata: Write Mulliken charges (when)               = geometry+end
redata: Write Mulliken Pop.                         = Atomic and Orbital charges
redata: Write Hirshfeld charges (when)              = end
redata: Write Voronoi charges (when)                = end
redata: Write spin charge (when)                    = none
redata: Matel table size (NRTAB)                    =     1024
redata: Mesh Cutoff                                 =   300.0000 Ry
redata: Net charge of the system                    =     0.0000 |e|
redata: Min. number of SCF Iter                     =        0
redata: Max. number of SCF Iter                     =      200
redata: SCF convergence failure will abort job
redata: SCF mix quantity                            = Hamiltonian
redata: Mix DM or H after convergence               =   F
redata: Recompute H after scf cycle                 =   F
redata: Mix DM in first SCF step                    =   T
redata: Write Pulay info on disk                    =   F
redata: New DM Occupancy tolerance                  = 0.000000000001
redata: No kicks to SCF
redata: DM Mixing Weight for Kicks                  =     0.5000
redata: Require Harris convergence for SCF          =   F
redata: Harris energy tolerance for SCF             =     0.000100 eV
redata: Require DM convergence for SCF              =   T
redata: DM tolerance for SCF                        =     0.000005
redata: Require EDM convergence for SCF             =   F
redata: EDM tolerance for SCF                       =     0.001000 eV
redata: Require H convergence for SCF               =   T
redata: Hamiltonian tolerance for SCF               =     0.000050 eV
redata: Require (free) Energy convergence for SCF   =   F
redata: (free) Energy tolerance for SCF             =     0.000100 eV
redata: Using DFT-D3 dispersion                     =   F
redata: Using Saved Data (generic)                  =   F
redata: Use continuation files for DM               =   T
redata: Neglect nonoverlap interactions             =   F
redata: Method of Calculation                       = Diagonalization
redata: Electronic Temperature                      =   300.0000 K
redata: Fix the spin of the system                  =   F
redata: Max. number of TDED Iter                    =        1
redata: Number of TDED substeps                     =        3
redata: Dynamics option                             = Single-point calculation
mix.SCF: Pulay mixing                            = Pulay
mix.SCF:    Variant                              = stable
mix.SCF:    History steps                        = 9
mix.SCF:    Linear mixing weight                 =     0.150000
mix.SCF:    Mixing weight                        =     0.150000
mix.SCF:    SVD condition                        = 0.1000E-07
mix.SCF:    Restart steps                        = 9
mix.SCF:    Restart save steps                   = 1
mix.SCF:    Number of mixing iterations          = 9
mix.SCF:    Following mixer                      = Linear-Kick
mix.SCF: Linear mixing                           = Linear-Kick
mix.SCF:    Mixing weight                        =     0.500000
mix.SCF:    Number of mixing iterations          = 1
mix.SCF:    Following mixer                      = Pulay
redata: Save all siesta data in one NC              =   F
redata: ***********************************************************************

%block SCF.Mixers
  Pulay
  Linear-Kick
%endblock SCF.Mixers

%block SCF.Mixer.Pulay
  # Mixing method
  method pulay
  variant stable

  # Mixing options
  weight 0.1500
  weight.linear 0.1500
  history 9
  restart 9
  restart.save 1

  # Continuation options
  iterations 9
  next Linear-Kick
%endblock SCF.Mixer.Pulay

%block SCF.Mixer.Linear-Kick
  # Mixing method
  method linear

  # Mixing options
  weight 0.5000

  # Continuation options
  iterations 1
  next Pulay
%endblock SCF.Mixer.Linear-Kick

DM_history_depth set to one: no extrapolation allowed by default for geometry relaxation
Size of DM history Fstack: 1
Total number of electrons:     8.000000
Total ionic charge:     8.000000

siesta: k-grid: Number of k-points = 1
siesta: k-point is Gamma-only

diag: Algorithm                                     = D&C
diag: Used triangular part                          = Lower
diag: Absolute tolerance                            =  0.100E-15
diag: Orthogonalization factor                      =  0.100E-05
diag: Memory factor                                 =  1.0000


ts: **************************************************************
ts: Save H and S matrices                           =    F
ts: Save DM and EDM matrices                        =    F
ts: Only save the overlap matrix S                  =    F
ts: **************************************************************

************************ Begin: TS CHECKS AND WARNINGS ************************
************************ End: TS CHECKS AND WARNINGS **************************


                     ====================================
                        Single-point calculation
                     ====================================

outcoor: Atomic coordinates (Ang):                          
    0.00000000    0.00000000    0.00000000   1       1  C
    1.62000000    0.00000000    0.00000000   1       2  C

outcell: Unit cell vectors (Ang):
       10.000000    0.000000    0.000000
        0.000000   10.000000    0.000000
        0.000000    0.000000   10.000000

outcell: Cell vector modules (Ang)   :   10.000000   10.000000   10.000000
outcell: Cell angles (23,13,12) (deg):     90.0000     90.0000     90.0000
outcell: Cell volume (Ang**3)        :   1000.0000
<dSpData1D:S at geom step 0
  <sparsity:sparsity for geom step 0
    nrows_g=26 nrows=26 sparsity=1.0000 nnzs=676, refcount: 7>
  <dData1D:(new from dSpData1D) n=676, refcount: 1>
refcount: 1>
new_DM -- step:     1
Initializing Density Matrix...

Attempting to read DM from file... Failed...
DM filled with atomic data:
<dSpData2D:DM initialized from atoms
  <sparsity:sparsity for geom step 0
    nrows_g=26 nrows=26 sparsity=1.0000 nnzs=676, refcount: 8>
  <dData2D:DM n=676 m=1, refcount: 1>
refcount: 1>
No. of atoms with KB's overlaping orbs in proc 0. Max # of overlaps:       2      26

InitMesh: MESH = 108 x 108 x 108 = 1259712
InitMesh: Mesh cutoff (required, used) =   300.000   322.366 Ry
New grid distribution [1]: sub = 2

stepf: Fermi-Dirac step function

siesta: Program's energy decomposition (eV):
siesta: Ebs     =       -81.990315
siesta: Eions   =       522.735435
siesta: Ena     =       127.407918
siesta: Ekin    =       177.643093
siesta: Enl     =        -1.726427
siesta: Eso     =         0.000000
siesta: Edftu   =         0.000000
siesta: DEna    =         2.983772
siesta: DUscf   =         1.204833
siesta: DUext   =         0.000000
siesta: Ex      =       -75.782317
siesta: Ec      =        -6.981783
siesta: Exc     =       -82.764099
siesta: EbV     =         0.000000
siesta: eta*DQ  =         0.000000
siesta: Emadel  =         0.000000
siesta: Emeta   =         0.000000
siesta: Emolmec =         0.000000
siesta: Ekinion =         0.000000
siesta: Eharris =      -300.359156
siesta: Etot    =      -297.986345
siesta: FreeEng =      -298.058034

        iscf     Eharris(eV)        E_KS(eV)     FreeEng(eV)     dDmax    Ef(eV) dHmax(eV)
   scf:    1     -300.359156     -297.986345     -298.058034  0.865445 -6.167115  0.985336
timer: Routine,Calls,Time,% = IterSCF        1       0.428  20.40
   scf:    2     -298.108641     -298.049142     -298.123065  0.006944 -6.274211  0.731807
   scf:    3     -293.538658     -296.957579     -296.958999  0.512829 -6.412079  1.998009
   scf:    4     -297.044145     -297.001041     -297.003788  0.003276 -6.408666  1.926827
   scf:    5     -296.807318     -296.905436     -296.906127  0.012552 -6.492422  2.102037
   scf:    6     -296.194665     -297.972180     -298.043858  0.477211 -6.480717  1.004339
   scf:    7     -298.099671     -298.037447     -298.110249  0.012737 -6.521976  0.754374
   scf:    8     -297.450368     -298.115704     -298.205024  0.273791 -6.461544  0.552967
   scf:    9     -298.082051     -298.099089     -298.187268  0.006870 -6.461900  0.584821
mix: Pulay -- resetting history
mix: switching mixer --> Linear-Kick
   scf:   10     -298.294458     -298.211906     -298.307608  0.057683 -6.459519  0.316815
mix: switching mixer --> Pulay
   scf:   11     -297.296566     -298.020042     -298.092482  0.224491 -6.465964  0.879211
   scf:   12     -298.315092     -298.191198     -298.281858  0.058332 -6.479907  0.448191
   scf:   13     -297.831311     -298.032454     -298.105822  0.057848 -6.464335  0.837353
   scf:   14     -297.865017     -298.209068     -298.304763  0.228812 -6.538898  0.357773
   scf:   15     -298.079642     -298.149462     -298.241321  0.033182 -6.522522  0.508352
   scf:   16     -297.598320     -298.129649     -298.213696  0.231377 -6.486223  0.586825
   scf:   17     -298.237188     -298.187253     -298.277297  0.026928 -6.488993  0.438322
   scf:   18     -298.224114     -298.206326     -298.298307  0.011635 -6.492904  0.382324
   scf:   19     -298.168180     -298.187858     -298.277973  0.010985 -6.491466  0.437291
mix: Pulay -- resetting history
mix: switching mixer --> Linear-Kick
   scf:   20     -298.164918     -298.176573     -298.265543  0.005982 -6.492750  0.468298
mix: switching mixer --> Pulay
   scf:   21     -294.597069     -297.202862     -297.217656  0.423187 -6.460190  1.637655
   scf:   22     -298.501197     -298.250149     -298.348255  0.285179 -6.489550  0.197220
   scf:   23     -298.273461     -298.265879     -298.364610  0.029198 -6.492130  0.060919
   scf:   24     -298.066983     -298.207528     -298.299555  0.094567 -6.463532  0.375029
   scf:   25     -298.273978     -298.267446     -298.365957  0.078078 -6.506647  0.024608
   scf:   26     -298.263774     -298.266636     -298.365362  0.015004 -6.511167  0.043074
   scf:   27     -298.267915     -298.267595     -298.366241  0.008333 -6.509082  0.005116
   scf:   28     -298.267627     -298.267635     -298.366241  0.002270 -6.508412  0.005160
mix: Pulay -- inversion failed, > SVD [rank/size] 4 / 8
   scf:   29     -298.267594     -298.267623     -298.366253  0.001354 -6.508837  0.000978
mix: Pulay -- inversion failed, > SVD [rank/size] 4 / 8
mix: Pulay -- resetting history
mix: switching mixer --> Linear-Kick
   scf:   30     -298.267628     -298.267626     -298.366254  0.000152 -6.508803  0.000290
mix: switching mixer --> Pulay
   scf:   31     -298.267637     -298.267632     -298.366252  0.000468 -6.508845  0.001908
   scf:   32     -298.267620     -298.267627     -298.366254  0.000390 -6.508844  0.000077
   scf:   33     -298.267627     -298.267627     -298.366254  0.000009 -6.508853  0.000021
   scf:   34     -298.267627     -298.267627     -298.366254  0.000001 -6.508848  0.000013

SCF Convergence by DM+H criterion
max |DM_out - DM_in|         :     0.0000005223
max |H_out - H_in|      (eV) :     0.0000134782
SCF cycle converged after 34 iterations

Using DM_out to compute the final energy and forces
No. of atoms with KB's overlaping orbs in proc 0. Max # of overlaps:       2      26

siesta: E_KS(eV) =             -298.2676

siesta: E_KS - E_eggbox =      -298.2676

siesta: Atomic forces (eV/Ang):
     1    6.390019   -0.000000   -0.000000
     2   -6.389367    0.000000   -0.000000
----------------------------------------
   Tot    0.000652    0.000000   -0.000000
----------------------------------------
   Max    6.390019
   Res    3.689091    sqrt( Sum f_i^2 / 3N )
----------------------------------------
   Max    6.390019    constrained

Stress tensor Voigt[x,y,z,yz,xz,xy] (kbar):       16.59        0.00        0.00       -0.00       -0.00       -0.00
(Free)E + p*V (eV/cell)     -301.8178
Target enthalpy (eV/cell)     -298.3663

mulliken: Atomic and Orbital Populations:

Species: C                   
Atom  Qatom  Qorb
               2s      2s      2py     2pz     2px     2py     2pz     2px     
               3Pdxy   3Pdyz   3Pdz2   3Pdxz   3Pdx2-y2
   1  4.000   1.561   0.137   0.609   0.609   0.845   0.034   0.034   0.126
              0.012   0.000   0.006   0.012   0.017
   2  4.000   1.561   0.137   0.609   0.609   0.845   0.034   0.034   0.126
              0.012   0.000   0.006   0.012   0.017

mulliken: Qtot =        8.000

Mulliken Atomic Populations:
Atom #   charge [q] valence [e]  Species
     1    -0.000024    4.000024  C
     2     0.000024    3.999976  C
--------------------
 Total    -0.000000

coxmol: Writing XMOL coordinates into file dimer_distance.xyz                                                                                                                                                                                                                  

siesta: Program's energy decomposition (eV):
siesta: Ebs     =       -81.362988
siesta: Eions   =       522.735435
siesta: Ena     =       127.407918
siesta: Ekin    =       176.704947
siesta: Enl     =        -1.734928
siesta: Eso     =         0.000000
siesta: Edftu   =         0.000000
siesta: DEna    =         3.868988
siesta: DUscf   =         0.218662
siesta: DUext   =         0.000000
siesta: Ex      =       -74.888462
siesta: Ec      =        -7.109317
siesta: Exc     =       -81.997780
siesta: EbV     =         0.000000
siesta: eta*DQ  =         0.000000
siesta: Emadel  =         0.000000
siesta: Emeta   =         0.000000
siesta: Emolmec =         0.000000
siesta: Ekinion =         0.000000
siesta: Eharris =      -298.267627
siesta: Etot    =      -298.267627
siesta: FreeEng =      -298.366254

siesta: Final energy (eV):
siesta:  Band Struct. =     -81.362988
siesta:       Kinetic =     176.704947
siesta:       Hartree =     255.581080
siesta:         Edftu =       0.000000
siesta:       Eso     =       0.000000
siesta:    Ext. field =       0.000000
siesta:         Exch. =     -74.888462
siesta:         Corr. =      -7.109317
siesta:     Bulk bias =       0.000000
siesta:   Exch.-corr. =     -81.997780
siesta:  Ion-electron =    -663.024641
siesta:       Ion-ion =      14.468766
siesta:       Ekinion =       0.000000
siesta: D3 dispersion =       0.000000
siesta:         Total =    -298.267627
siesta:         Fermi =      -6.508848

siesta: Atomic forces (eV/Ang):
siesta:      1    6.390019   -0.000000   -0.000000
siesta:      2   -6.389367    0.000000   -0.000000
siesta: ----------------------------------------
siesta:    Tot    0.000652    0.000000   -0.000000

siesta: Stress tensor (static) (eV/Ang**3):
siesta:     0.010354   -0.000000   -0.000000
siesta:    -0.000000    0.000001   -0.000000
siesta:    -0.000000   -0.000000    0.000001

siesta: Cell volume =       1000.000000 Ang**3

siesta: Pressure (static):
siesta:                Solid            Molecule  Units
siesta:          -0.00003759         -0.00000001  Ry/Bohr**3
siesta:          -0.00345158         -0.00000115  eV/Ang**3
siesta:          -5.53004161         -0.00183679  kBar
(Free)E+ p_basis*V_orbitals  =        -297.606849
(Free)Eharris+ p_basis*V_orbitals  =        -297.606849

mulliken: Atomic and Orbital Populations:

Species: C                   
Atom  Qatom  Qorb
               2s      2s      2py     2pz     2px     2py     2pz     2px     
               3Pdxy   3Pdyz   3Pdz2   3Pdxz   3Pdx2-y2
   1  4.000   1.561   0.137   0.609   0.609   0.845   0.034   0.034   0.126
              0.012   0.000   0.006   0.012   0.017
   2  4.000   1.561   0.137   0.609   0.609   0.845   0.034   0.034   0.126
              0.012   0.000   0.006   0.012   0.017

mulliken: Qtot =        8.000

Mulliken Atomic Populations:
Atom #   charge [q] valence [e]  Species
     1    -0.000024    4.000024  C
     2     0.000024    3.999976  C
--------------------
 Total    -0.000000

siesta: Electric dipole (a.u.)  =   -0.000000    0.000000   -0.000000
siesta: Electric dipole (Debye) =   -0.000001    0.000000   -0.000000

Hirshfeld Atomic Populations:
Atom #   charge [q] valence [e]  Species
     1    -0.000003    4.000003  C
     2     0.000004    3.999996  C
--------------------
 Total     0.000000

Voronoi Atomic Populations:
Atom #   charge [q] valence [e]  Species
     1     0.006319    3.993681  C
     2    -0.006318    4.006318  C
--------------------
 Total     0.000000

cite: Please indicate the Siesta version in published work: 5.2.2
cite: This calculation has made use of features in the following articles
cite: which we encourage you to cite in published work.
cite: (Please see "dimer_distance.bib" for a BibTeX file.)
        Primary SIESTA paper
          DOI: www.doi.org/10.1088/0953-8984/14/11/302


timer: Elapsed wall time (sec) =      20.756
timer: CPU execution times (sec):

Routine            Calls   Time/call    Tot.time        %
siesta                 1      19.085      19.085   100.00
Setup                  1       0.142       0.142     0.74
bands                  1       0.000       0.000     0.00
KSV_init               1       0.000       0.000     0.00
IterGeom               1      18.167      18.167    95.19
geom_init              1       1.528       1.528     8.01
state_init             1       0.114       0.114     0.60
hsparse                1       0.000       0.000     0.00
overlap                1       0.113       0.113     0.59
Setup_H0               1       0.967       0.967     5.07
naefs                  2       0.000       0.000     0.00
dnaefs                 2       0.000       0.000     0.00
MolMec                 2       0.000       0.000     0.00
kinefsm                2       0.054       0.108     0.57
nlefsm                 2       0.215       0.429     2.25
DHSCF_Init             1       0.431       0.431     2.26
DHSCF1                 1       0.041       0.041     0.21
InitMesh               1       0.041       0.041     0.21
INITMESH               1       0.000       0.000     0.00
DHSCF2                 1       0.390       0.390     2.04
REMESH                 1       0.015       0.015     0.08
REORD                 83       0.003       0.251     1.32
PHION                  1       0.224       0.224     1.17
COMM_BSC             152       0.002       0.318     1.67
POISON                38       0.103       3.910    20.49
fft                   76       0.035       2.634    13.80
setup_H               35       0.464      16.234    85.06
DHSCF                 37       0.479      17.722    92.86
DHSCF3                37       0.471      17.411    91.23
rhoofd                37       0.036       1.344     7.04
XC                    37       0.259       9.601    50.31
GXC-CellXC            37       0.249       9.223    48.32
gridxc@cellXC         37       0.249       9.222    48.32
vmat                  36       0.025       0.887     4.65
IterSCF               34       0.465      15.816    82.87
compute_dm            34       0.000       0.012     0.06
diagon                34       0.000       0.011     0.06
r-eigvec              34       0.000       0.008     0.04
r-buildHS             34       0.000       0.000     0.00
rdiag                 34       0.000       0.008     0.04
rdiag1                34       0.000       0.001     0.00
rdiag2                34       0.000       0.001     0.00
rdiag3                34       0.000       0.005     0.03
rdiag4                34       0.000       0.001     0.00
r-buildD              34       0.000       0.001     0.01
MIXER                 33       0.000       0.002     0.01
PostSCF                1       0.820       0.820     4.30
FINAL_HF               1       0.820       0.820     4.30
DHSCF4                 1       0.311       0.311     1.63
dfscf                  1       0.259       0.259     1.36
overfsm                1       0.001       0.001     0.00
writeHSX               1       0.000       0.000     0.00
state_analysis         1       0.001       0.001     0.00
siesta_move            1       0.000       0.000     0.00
Analysis               1       0.774       0.774     4.05
optical                1       0.000       0.000     0.00
partial-charges        1       0.322       0.322     1.69
  

>> End of run:  28-MAR-2025  16:12:38
Job completed
