Executable      : siesta
Version         : 5.2.2
Architecture    : x86_64
Compiler version: GNU-13.3.0
Compiler flags  : -march=nocona -mtune=haswell -ftree-vectorize -fPIC -fstack-protector-strong -fno-plt -O2 -ffunction-sections -pipe -isystem <prefix>/include -I<prefix>/_build_env/include -fdebug-prefix-map=<prefix>/work=/usr/local/src/conda/siesta-5.2.2 -fdebug-prefix-map=<prefix>=/usr/local/src/conda-prefix -I<prefix>/lib -fallow-argument-mismatch -O3
Parallelisations: none
NetCDF support
NetCDF-4 support
Lua support
DFT-D3 support

Runtime information:
* Directory : /v/rconte1/dimer/distance2/runs/run033
* Running in serial mode.
>> Start of run:  28-MAR-2025  16:12:51

                           *********************** 
                           *  WELCOME TO SIESTA  * 
                           *********************** 

 NOTE: Siesta V5 introduces some new defaults for basis-set generation
 NOTE: which might lead to slightly different numerical results.
 NOTE: Please see the manual for full details and compatibility measures.


reinit: Reading from standard input
reinit: Dumping input in INPUT_TMP.96929
************************** Dump of input data file ****************************
#DON'T FORGET TO PUT THE .PSF FILE TO THE SAME DIRECTORY
SystemName          Dimer of Carbon                     # Name of the system we want to investigate
SystemLabel         dimer_distance                           # name of output files
NumberOfAtoms       2                                # how many number in the unit cell? Dimer -> 2 atoms
NumberOfSpecies     1                                # how many different type of atoms? Dimer -> 1
%block ChemicalSpeciesLabel
 1  6  C        # Species index, atomic number, species label
%endblock ChemicalSpeciesLabel
# ----------------------
# STRUCTURAL INFORMATION
# ----------------------
LatticeConstant     1.0 Ang
%block LatticeVectors
   10.000000    0.000000    0.000000
    0.000000   10.000000    0.000000
    0.000000    0.000000   10.000000
%endblock LatticeVectors
AtomicCoordinatesFormat Ang
%block AtomicCoordinatesAndAtomicSpecies
    0.000000     0.000000     0.000000   1
    1.660     0.000000     0.000000   1
%endblock AtomicCoordinatesAndAtomicSpecies
# --
# XC
# --
xc.functional	        GGA	
xc.authors		PBE	
# ----
# GRID
# ----
# MeshCutoff 		200. Ry
# ---------------
# Solution Method
# ---------------
SolutionMethod		diagon
ElectronicTemperature	300 K	
# ---
# SCF
# ---
SCF.DM.Tolerance         5.E-6
SCF.H.Tolerance          5.E-5 eV
SCF.Mix                  Hamiltonian
# SCF.Mix.Spin             all
SCF.Mixer.Method         Pulay
SCF.Mixer.Weight         0.15
SCF.Mixer.Kick           10
SCF.Mixer.History        20
MaxSCFIterations	     200
DM.UseSaveDM	     	 T
SaveHS                   T
# --------------
# OUTPUT OPTIONS
# --------------
WriteEigenvalues       F
WriteForces            T
WriteCoorStep          T
WriteCoorXmol          T     # generate the .xyz file 
WriteMDXmol            T     # generate the .ani file 
WriteMullikenPop       1
Write.HirshfeldPop     T
Write.VoronoiPop       T
Write.DM.NetCDF        T
Write.DMHS.NetCDF      T
************************** End of input data file *****************************

reinit: -----------------------------------------------------------------------
reinit: System Name: Dimer of Carbon
reinit: -----------------------------------------------------------------------
reinit: System Label: dimer_distance
reinit: -----------------------------------------------------------------------

initatom: Reading input for the pseudopotentials and atomic orbitals ----------
Species number:   1 Atomic number:    6 Label: C

Ground state valence configuration (from tables):   2s02  2p02  3d00  4f00

---- Processing specs for species: C
Reading pseudopotential information in formatted form from:
  C.psf

---- Pseudopotential check for  C

Pseudized shells:
2s( 2.00) rc: 1.56
2p( 2.00) rc: 1.56
3d( 0.00) rc: 1.56
4f( 0.00) rc: 1.56
Valence configuration for ps generation: (assumed as above)
For C, standard SIESTA heuristics set lmxkb to 3
 (one more than the basis l, including polarization orbitals).
Use PS.lmax or PS.KBprojectors blocks to override.

<basis_specs>
===============================================================================
C                    Z=   6    Mass=  12.011        Charge= 0.17977+309
Lmxo=2 Lmxkb= 3    BasisType=split      Semic=F
L=0  Nsemic=0  Cnfigmx=2
          i=1  nzeta=2  polorb=0  (2s)
            splnorm:   0.15000    
               vcte:    40.000    
               rinn:  -0.90000    
               qcoe:    0.0000    
               qyuk:    0.0000    
               qwid:   0.10000E-01
                rcs:    0.0000      0.0000    
            lambdas:    1.0000      1.0000    
L=1  Nsemic=0  Cnfigmx=2
          i=1  nzeta=2  polorb=1  (2p)  (to be polarized perturbatively)
            splnorm:   0.15000    
               vcte:    40.000    
               rinn:  -0.90000    
               qcoe:    0.0000    
               qyuk:    0.0000    
               qwid:   0.10000E-01
                rcs:    0.0000      0.0000    
            lambdas:    1.0000      1.0000    
L=2  Nsemic=0  Cnfigmx=3
          i=1  nzeta=0  polorb=0  (3d)  (perturbative polarization orbital) (from 2p)
-------------------------------------------------------------------------------
L=0  Nkbl=1  erefs: 0.17977+309
L=1  Nkbl=1  erefs: 0.17977+309
L=2  Nkbl=1  erefs: 0.17977+309
L=3  Nkbl=1  erefs: 0.17977+309
===============================================================================
</basis_specs>

Using PAO.SplitTailNorm
atom: Called for C                     (Z =   6)
Maximum radius (at nrval) set to   50.00000 8518

read_vps: Pseudopotential generation method:
read_vps: ATM 3.2.2 Troullier-Martins                       
Valence charge in pseudo generation:    4.00000

xc_check: Exchange-correlation functional:
xc_check: GGA Perdew, Burke & Ernzerhof 1996
V l=0 = -2*Zval/r beyond r=  1.5347
V l=1 = -2*Zval/r beyond r=  1.5332
V l=2 = -2*Zval/r beyond r=  1.5347
V l=3 = -2*Zval/r beyond r=  1.5347
All V_l potentials equal beyond r=  1.4890
This should be close to max(r_c) in ps generation
All pots = -2*Zval/r beyond r=  1.5347
Using small-core scheme (local charge) for Vlocal

VLOCAL_FROM_CHLOCAL: 99.0% of the norm of Vloc inside     19.577 Ry
VLOCAL_FROM_CHLOCAL: 99.9% of the norm of Vloc inside     44.617 Ry
atom: Maximum radius for chlocal:    1.77931
atom: Maximum radius for r*vlocal+2*Zval:    1.63022

KBgen: Kleinman-Bylander projectors: 
GHOST: No ghost state for L =  0
   l= 0   rc=  1.646704   el= -1.010689   Ekb=  5.277734   kbcos=  0.315993
GHOST: No ghost state for L =  1
   l= 1   rc=  1.648361   el= -0.388490   Ekb= -4.115733   kbcos= -0.351483
GHOST: No ghost state for L =  2
   l= 2   rc=  1.735131   el=  0.012917   Ekb= -1.012311   kbcos= -0.009283
GHOST: No ghost state for L =  3
   l= 3   rc=  1.777521   el=  0.019225   Ekb= -0.424772   kbcos= -0.001204

KBgen: Total number of Kleinman-Bylander projectors:  16
atom: -------------------------------------------------------------------------

atom: SANKEY-TYPE ORBITALS:
atom: Selected multiple-zeta basis: split     

SPLIT: Orbitals with angular momentum L= 0

SPLIT: Basis orbitals for state 2s

SPLIT: PAO cut-off radius determined from an
SPLIT: energy shift=  0.010000 Ry
Split based on tail norm

   izeta = 1
                 lambda =    1.000000
                     rc =    4.484389
                 energy =   -0.999400
                kinetic =    0.879719
    potential(screened) =   -1.879119
       potential(ionic) =   -5.474723

   izeta = 2
                 rmatch =    3.048210
              splitnorm =    0.150000
                 energy =   -0.737057
                kinetic =    1.553917
    potential(screened) =   -2.290974
       potential(ionic) =   -6.191799

SPLIT: Orbitals with angular momentum L= 1

SPLIT: Basis orbitals for state 2p

SPLIT: PAO cut-off radius determined from an
SPLIT: energy shift=  0.010000 Ry
Split based on tail norm

   izeta = 1
                 lambda =    1.000000
                     rc =    5.435719
                 energy =   -0.377283
                kinetic =    2.459011
    potential(screened) =   -2.836294
       potential(ionic) =   -6.303833

   izeta = 2
                 rmatch =    3.691839
              splitnorm =    0.150000
                 energy =   -0.247686
                kinetic =    3.567780
    potential(screened) =   -3.815466
       potential(ionic) =   -7.634895

POLgen: Perturbative polarization orbital with L=  2

POLgen: Polarization orbital for state 2p
Split based on tail norm

   izeta = 1
                     rc =    5.435719
                 energy =    1.173953
                kinetic =    2.358612
    potential(screened) =   -1.184659
       potential(ionic) =   -4.054396
atom: Total number of Sankey-type orbitals: 13

atm_pop: Valence configuration (for local Pseudopot. screening):
 2s( 2.00)                                                            
 2p( 2.00)                                                            
 3d( 0.00)                                                            
Vna: chval, zval:    4.00000   4.00000

Vna:  Cut-off radius for the neutral-atom potential:   5.435719

atom: _________________________________________________________________________

prinput: Basis input 

PAO.BasisType split     

%block ChemicalSpeciesLabel
    1    6 C                       # Species index, atomic number, species label
%endblock ChemicalSpeciesLabel

%block PAO.Basis                 # Define Basis set
# WARNING: This information might be incomplete!
C                     2                    # Species label, number of l-shells
 n=2   0   2                         # n, l, Nzeta 
   4.484      3.048   
   1.000      1.000   
 n=2   1   2 P   1                   # n, l, Nzeta, Polarization, NzetaPol
   5.436      3.692   
   1.000      1.000   
%endblock PAO.Basis

prinput: ----------------------------------------------------------------------

Dumping basis to NetCDF file C.ion.nc
coor:   Atomic-coordinates input format  =     Cartesian coordinates
coor:                                          (in Angstroms)

siesta: Atomic coordinates (Bohr) and species
siesta:      0.00000   0.00000   0.00000  1        1
siesta:      3.13695   0.00000   0.00000  1        2

siesta: System type = molecule  

initatomlists: Number of atoms, orbitals, and projectors:      2    26    32

coxmol: Writing XMOL coordinates into file dimer_distance.xyz                                                                                                                                                                                                                  

siesta: ******************** Simulation parameters ****************************
siesta:
siesta: The following are some of the parameters of the simulation.
siesta: A complete list of the parameters used, including default values,
siesta: can be found in file out.fdf
siesta:
redata: Spin configuration                          = none
redata: Number of spin components                   = 1
redata: Time-Reversal Symmetry                      = T
redata: Spin spiral                                 = F
redata: Long output                                 =   F
redata: Number of Atomic Species                    =        1
redata: Charge density info will appear in .RHO file
redata: Write Mulliken charges (when)               = geometry+end
redata: Write Mulliken Pop.                         = Atomic and Orbital charges
redata: Write Hirshfeld charges (when)              = end
redata: Write Voronoi charges (when)                = end
redata: Write spin charge (when)                    = none
redata: Matel table size (NRTAB)                    =     1024
redata: Mesh Cutoff                                 =   300.0000 Ry
redata: Net charge of the system                    =     0.0000 |e|
redata: Min. number of SCF Iter                     =        0
redata: Max. number of SCF Iter                     =      200
redata: SCF convergence failure will abort job
redata: SCF mix quantity                            = Hamiltonian
redata: Mix DM or H after convergence               =   F
redata: Recompute H after scf cycle                 =   F
redata: Mix DM in first SCF step                    =   T
redata: Write Pulay info on disk                    =   F
redata: New DM Occupancy tolerance                  = 0.000000000001
redata: No kicks to SCF
redata: DM Mixing Weight for Kicks                  =     0.5000
redata: Require Harris convergence for SCF          =   F
redata: Harris energy tolerance for SCF             =     0.000100 eV
redata: Require DM convergence for SCF              =   T
redata: DM tolerance for SCF                        =     0.000005
redata: Require EDM convergence for SCF             =   F
redata: EDM tolerance for SCF                       =     0.001000 eV
redata: Require H convergence for SCF               =   T
redata: Hamiltonian tolerance for SCF               =     0.000050 eV
redata: Require (free) Energy convergence for SCF   =   F
redata: (free) Energy tolerance for SCF             =     0.000100 eV
redata: Using DFT-D3 dispersion                     =   F
redata: Using Saved Data (generic)                  =   F
redata: Use continuation files for DM               =   T
redata: Neglect nonoverlap interactions             =   F
redata: Method of Calculation                       = Diagonalization
redata: Electronic Temperature                      =   300.0000 K
redata: Fix the spin of the system                  =   F
redata: Max. number of TDED Iter                    =        1
redata: Number of TDED substeps                     =        3
redata: Dynamics option                             = Single-point calculation
mix.SCF: Pulay mixing                            = Pulay
mix.SCF:    Variant                              = stable
mix.SCF:    History steps                        = 9
mix.SCF:    Linear mixing weight                 =     0.150000
mix.SCF:    Mixing weight                        =     0.150000
mix.SCF:    SVD condition                        = 0.1000E-07
mix.SCF:    Restart steps                        = 9
mix.SCF:    Restart save steps                   = 1
mix.SCF:    Number of mixing iterations          = 9
mix.SCF:    Following mixer                      = Linear-Kick
mix.SCF: Linear mixing                           = Linear-Kick
mix.SCF:    Mixing weight                        =     0.500000
mix.SCF:    Number of mixing iterations          = 1
mix.SCF:    Following mixer                      = Pulay
redata: Save all siesta data in one NC              =   F
redata: ***********************************************************************

%block SCF.Mixers
  Pulay
  Linear-Kick
%endblock SCF.Mixers

%block SCF.Mixer.Pulay
  # Mixing method
  method pulay
  variant stable

  # Mixing options
  weight 0.1500
  weight.linear 0.1500
  history 9
  restart 9
  restart.save 1

  # Continuation options
  iterations 9
  next Linear-Kick
%endblock SCF.Mixer.Pulay

%block SCF.Mixer.Linear-Kick
  # Mixing method
  method linear

  # Mixing options
  weight 0.5000

  # Continuation options
  iterations 1
  next Pulay
%endblock SCF.Mixer.Linear-Kick

DM_history_depth set to one: no extrapolation allowed by default for geometry relaxation
Size of DM history Fstack: 1
Total number of electrons:     8.000000
Total ionic charge:     8.000000

siesta: k-grid: Number of k-points = 1
siesta: k-point is Gamma-only

diag: Algorithm                                     = D&C
diag: Used triangular part                          = Lower
diag: Absolute tolerance                            =  0.100E-15
diag: Orthogonalization factor                      =  0.100E-05
diag: Memory factor                                 =  1.0000


ts: **************************************************************
ts: Save H and S matrices                           =    F
ts: Save DM and EDM matrices                        =    F
ts: Only save the overlap matrix S                  =    F
ts: **************************************************************

************************ Begin: TS CHECKS AND WARNINGS ************************
************************ End: TS CHECKS AND WARNINGS **************************


                     ====================================
                        Single-point calculation
                     ====================================

outcoor: Atomic coordinates (Ang):                          
    0.00000000    0.00000000    0.00000000   1       1  C
    1.66000000    0.00000000    0.00000000   1       2  C

outcell: Unit cell vectors (Ang):
       10.000000    0.000000    0.000000
        0.000000   10.000000    0.000000
        0.000000    0.000000   10.000000

outcell: Cell vector modules (Ang)   :   10.000000   10.000000   10.000000
outcell: Cell angles (23,13,12) (deg):     90.0000     90.0000     90.0000
outcell: Cell volume (Ang**3)        :   1000.0000
<dSpData1D:S at geom step 0
  <sparsity:sparsity for geom step 0
    nrows_g=26 nrows=26 sparsity=1.0000 nnzs=676, refcount: 7>
  <dData1D:(new from dSpData1D) n=676, refcount: 1>
refcount: 1>
new_DM -- step:     1
Initializing Density Matrix...

Attempting to read DM from file... Failed...
DM filled with atomic data:
<dSpData2D:DM initialized from atoms
  <sparsity:sparsity for geom step 0
    nrows_g=26 nrows=26 sparsity=1.0000 nnzs=676, refcount: 8>
  <dData2D:DM n=676 m=1, refcount: 1>
refcount: 1>
No. of atoms with KB's overlaping orbs in proc 0. Max # of overlaps:       2      26

InitMesh: MESH = 108 x 108 x 108 = 1259712
InitMesh: Mesh cutoff (required, used) =   300.000   322.366 Ry
New grid distribution [1]: sub = 2

stepf: Fermi-Dirac step function

siesta: Program's energy decomposition (eV):
siesta: Ebs     =       -81.496119
siesta: Eions   =       522.735435
siesta: Ena     =       127.645437
siesta: Ekin    =       176.109348
siesta: Enl     =        -1.229321
siesta: Eso     =         0.000000
siesta: Edftu   =         0.000000
siesta: DEna    =         3.593502
siesta: DUscf   =         1.155910
siesta: DUext   =         0.000000
siesta: Ex      =       -75.376690
siesta: Ec      =        -6.959302
siesta: Exc     =       -82.335992
siesta: EbV     =         0.000000
siesta: eta*DQ  =         0.000000
siesta: Emadel  =         0.000000
siesta: Emeta   =         0.000000
siesta: Emolmec =         0.000000
siesta: Ekinion =         0.000000
siesta: Eharris =      -300.351204
siesta: Etot    =      -297.796550
siesta: FreeEng =      -297.868228

        iscf     Eharris(eV)        E_KS(eV)     FreeEng(eV)     dDmax    Ef(eV) dHmax(eV)
   scf:    1     -300.351204     -297.796550     -297.868228  0.845693 -6.008771  0.969987
timer: Routine,Calls,Time,% = IterSCF        1       0.477  20.02
   scf:    2     -297.899720     -297.849352     -297.921158  0.005501 -6.121126  0.732232
   scf:    3     -293.142804     -296.616506     -296.622829  0.525130 -6.327552  1.949279
   scf:    4     -296.843828     -296.731257     -296.746190  0.012354 -6.321263  1.817310
   scf:    5     -296.530844     -296.632101     -296.640052  0.015744 -6.392071  1.947561
   scf:    6     -296.307294     -297.787883     -297.859560  0.476506 -6.363961  0.968320
   scf:    7     -297.924760     -297.858347     -297.930267  0.017959 -6.405936  0.670141
   scf:    8     -298.058332     -297.978661     -298.068587  0.051987 -6.365419  0.325410
   scf:    9     -297.953429     -297.966487     -298.054540  0.009649 -6.364949  0.373093
mix: Pulay -- resetting history
mix: switching mixer --> Linear-Kick
   scf:   10     -298.028424     -298.004703     -298.099097  0.039559 -6.364583  0.188156
mix: switching mixer --> Pulay
   scf:   11     -296.814494     -297.649725     -297.731468  0.237870 -6.378592  0.883542
   scf:   12     -297.956231     -298.012533     -298.108717  0.218907 -6.376263  0.094088
   scf:   13     -297.875154     -297.961071     -298.048421  0.064880 -6.342358  0.401363
   scf:   14     -297.999430     -298.013744     -298.111579  0.091979 -6.403624  0.030337
   scf:   15     -297.987685     -298.007299     -298.102040  0.037734 -6.405349  0.146115
   scf:   16     -298.006977     -298.013733     -298.111573  0.037828 -6.401581  0.029036
   scf:   17     -298.014902     -298.014488     -298.111984  0.006116 -6.403570  0.001682
   scf:   18     -298.014438     -298.014463     -298.111981  0.000357 -6.403176  0.002734
   scf:   19     -298.014583     -298.014528     -298.111984  0.000993 -6.403757  0.001566
mix: Pulay -- resetting history
mix: switching mixer --> Linear-Kick
   scf:   20     -298.014517     -298.014522     -298.111984  0.000096 -6.403761  0.001107
mix: switching mixer --> Pulay
   scf:   21     -298.014301     -298.014421     -298.111970  0.001445 -6.403737  0.005571
   scf:   22     -298.014583     -298.014509     -298.111985  0.001217 -6.403755  0.000059
   scf:   23     -298.014508     -298.014508     -298.111985  0.000007 -6.403762  0.000005
   scf:   24     -298.014509     -298.014509     -298.111985  0.000007 -6.403759  0.000029
   scf:   25     -298.014508     -298.014508     -298.111985  0.000005 -6.403758  0.000000
   scf:   26     -298.014508     -298.014508     -298.111985  0.000000 -6.403758  0.000001

SCF Convergence by DM+H criterion
max |DM_out - DM_in|         :     0.0000001302
max |H_out - H_in|      (eV) :     0.0000009590
SCF cycle converged after 26 iterations

Using DM_out to compute the final energy and forces
No. of atoms with KB's overlaping orbs in proc 0. Max # of overlaps:       2      26

siesta: E_KS(eV) =             -298.0145

siesta: E_KS - E_eggbox =      -298.0145

siesta: Atomic forces (eV/Ang):
     1    6.311996   -0.000000   -0.000000
     2   -6.312968   -0.000000   -0.000000
----------------------------------------
   Tot   -0.000972   -0.000000   -0.000000
----------------------------------------
   Max    6.312968
   Res    3.644513    sqrt( Sum f_i^2 / 3N )
----------------------------------------
   Max    6.312968    constrained

Stress tensor Voigt[x,y,z,yz,xz,xy] (kbar):       16.80        0.00        0.00        0.00        0.00        0.00
(Free)E + p*V (eV/cell)     -301.6082
Target enthalpy (eV/cell)     -298.1120

mulliken: Atomic and Orbital Populations:

Species: C                   
Atom  Qatom  Qorb
               2s      2s      2py     2pz     2px     2py     2pz     2px     
               3Pdxy   3Pdyz   3Pdz2   3Pdxz   3Pdx2-y2
   1  4.000   1.608   0.123   0.590   0.590   0.869   0.024   0.024   0.128
              0.011   0.000   0.006   0.011   0.017
   2  4.000   1.608   0.123   0.590   0.590   0.869   0.024   0.024   0.128
              0.011   0.000   0.006   0.011   0.017

mulliken: Qtot =        8.000

Mulliken Atomic Populations:
Atom #   charge [q] valence [e]  Species
     1     0.000001    3.999999  C
     2    -0.000001    4.000001  C
--------------------
 Total    -0.000000

coxmol: Writing XMOL coordinates into file dimer_distance.xyz                                                                                                                                                                                                                  

siesta: Program's energy decomposition (eV):
siesta: Ebs     =       -80.612798
siesta: Eions   =       522.735435
siesta: Ena     =       127.645437
siesta: Ekin    =       175.620651
siesta: Enl     =        -1.110607
siesta: Eso     =         0.000000
siesta: Edftu   =         0.000000
siesta: DEna    =         4.043436
siesta: DUscf   =         0.283036
siesta: DUext   =         0.000000
siesta: Ex      =       -74.692467
siesta: Ec      =        -7.068560
siesta: Exc     =       -81.761027
siesta: EbV     =         0.000000
siesta: eta*DQ  =         0.000000
siesta: Emadel  =         0.000000
siesta: Emeta   =         0.000000
siesta: Emolmec =         0.000000
siesta: Ekinion =         0.000000
siesta: Eharris =      -298.014508
siesta: Etot    =      -298.014508
siesta: FreeEng =      -298.111985

siesta: Final energy (eV):
siesta:  Band Struct. =     -80.612798
siesta:       Kinetic =     175.620651
siesta:       Hartree =     252.639005
siesta:         Edftu =       0.000000
siesta:       Eso     =       0.000000
siesta:    Ext. field =       0.000000
siesta:         Exch. =     -74.692467
siesta:         Corr. =      -7.068560
siesta:     Bulk bias =       0.000000
siesta:   Exch.-corr. =     -81.761027
siesta:  Ion-electron =    -655.623355
siesta:       Ion-ion =      11.110218
siesta:       Ekinion =       0.000000
siesta: D3 dispersion =       0.000000
siesta:         Total =    -298.014508
siesta:         Fermi =      -6.403758

siesta: Atomic forces (eV/Ang):
siesta:      1    6.311996   -0.000000   -0.000000
siesta:      2   -6.312968   -0.000000   -0.000000
siesta: ----------------------------------------
siesta:    Tot   -0.000972   -0.000000   -0.000000

siesta: Stress tensor (static) (eV/Ang**3):
siesta:     0.010488   -0.000000    0.000000
siesta:     0.000000    0.000000   -0.000000
siesta:     0.000000    0.000000    0.000000

siesta: Cell volume =       1000.000000 Ang**3

siesta: Pressure (static):
siesta:                Solid            Molecule  Units
siesta:          -0.00003808         -0.00000004  Ry/Bohr**3
siesta:          -0.00349624         -0.00000334  eV/Ang**3
siesta:          -5.60160144         -0.00534772  kBar
(Free)E+ p_basis*V_orbitals  =        -297.352580
(Free)Eharris+ p_basis*V_orbitals  =        -297.352580

mulliken: Atomic and Orbital Populations:

Species: C                   
Atom  Qatom  Qorb
               2s      2s      2py     2pz     2px     2py     2pz     2px     
               3Pdxy   3Pdyz   3Pdz2   3Pdxz   3Pdx2-y2
   1  4.000   1.608   0.123   0.590   0.590   0.869   0.024   0.024   0.128
              0.011   0.000   0.006   0.011   0.017
   2  4.000   1.608   0.123   0.590   0.590   0.869   0.024   0.024   0.128
              0.011   0.000   0.006   0.011   0.017

mulliken: Qtot =        8.000

Mulliken Atomic Populations:
Atom #   charge [q] valence [e]  Species
     1     0.000001    3.999999  C
     2    -0.000001    4.000001  C
--------------------
 Total    -0.000000

siesta: Electric dipole (a.u.)  =    0.000004    0.000000    0.000000
siesta: Electric dipole (Debye) =    0.000010    0.000000    0.000000

Hirshfeld Atomic Populations:
Atom #   charge [q] valence [e]  Species
     1    -0.000001    4.000001  C
     2     0.000001    3.999999  C
--------------------
 Total     0.000000

Voronoi Atomic Populations:
Atom #   charge [q] valence [e]  Species
     1     0.011767    3.988233  C
     2    -0.011767    4.011767  C
--------------------
 Total     0.000000

cite: Please indicate the Siesta version in published work: 5.2.2
cite: This calculation has made use of features in the following articles
cite: which we encourage you to cite in published work.
cite: (Please see "dimer_distance.bib" for a BibTeX file.)
        Primary SIESTA paper
          DOI: www.doi.org/10.1088/0953-8984/14/11/302


timer: Elapsed wall time (sec) =      16.339
timer: CPU execution times (sec):

Routine            Calls   Time/call    Tot.time        %
siesta                 1      16.034      16.034   100.00
Setup                  1       0.151       0.151     0.94
bands                  1       0.000       0.000     0.00
KSV_init               1       0.000       0.000     0.00
IterGeom               1      15.135      15.135    94.39
geom_init              1       1.752       1.752    10.93
state_init             1       0.160       0.160     1.00
hsparse                1       0.000       0.000     0.00
overlap                1       0.158       0.158     0.99
Setup_H0               1       1.106       1.106     6.90
naefs                  2       0.000       0.000     0.00
dnaefs                 2       0.000       0.000     0.00
MolMec                 2       0.000       0.000     0.00
kinefsm                2       0.066       0.132     0.82
nlefsm                 2       0.244       0.489     3.05
DHSCF_Init             1       0.487       0.487     3.04
DHSCF1                 1       0.047       0.047     0.29
InitMesh               1       0.047       0.047     0.29
INITMESH               1       0.000       0.000     0.00
DHSCF2                 1       0.440       0.440     2.74
REMESH                 1       0.017       0.017     0.11
REORD                 67       0.003       0.196     1.22
PHION                  1       0.257       0.257     1.60
COMM_BSC             120       0.002       0.246     1.53
POISON                30       0.107       3.202    19.97
fft                   60       0.036       2.144    13.37
setup_H               27       0.481      12.994    81.04
DHSCF                 29       0.500      14.508    90.48
DHSCF3                29       0.490      14.200    88.56
rhoofd                29       0.037       1.066     6.65
XC                    29       0.273       7.917    49.38
GXC-CellXC            29       0.263       7.618    47.51
gridxc@cellXC         29       0.263       7.618    47.51
vmat                  28       0.025       0.699     4.36
IterSCF               26       0.482      12.530    78.15
compute_dm            26       0.000       0.010     0.06
diagon                26       0.000       0.009     0.06
r-eigvec              26       0.000       0.007     0.04
r-buildHS             26       0.000       0.000     0.00
rdiag                 26       0.000       0.006     0.04
rdiag1                26       0.000       0.000     0.00
rdiag2                26       0.000       0.001     0.00
rdiag3                26       0.000       0.004     0.03
rdiag4                26       0.000       0.001     0.00
r-buildD              26       0.000       0.001     0.01
MIXER                 25       0.000       0.001     0.01
PostSCF                1       0.851       0.851     5.31
FINAL_HF               1       0.851       0.851     5.31
DHSCF4                 1       0.308       0.308     1.92
dfscf                  1       0.265       0.265     1.65
overfsm                1       0.000       0.000     0.00
writeHSX               1       0.000       0.000     0.00
state_analysis         1       0.001       0.001     0.01
siesta_move            1       0.000       0.000     0.00
Analysis               1       0.745       0.745     4.64
optical                1       0.000       0.000     0.00
partial-charges        1       0.299       0.299     1.86
  

>> End of run:  28-MAR-2025  16:13:07
Job completed
