Executable      : siesta
Version         : 5.2.2
Architecture    : x86_64
Compiler version: GNU-13.3.0
Compiler flags  : -march=nocona -mtune=haswell -ftree-vectorize -fPIC -fstack-protector-strong -fno-plt -O2 -ffunction-sections -pipe -isystem <prefix>/include -I<prefix>/_build_env/include -fdebug-prefix-map=<prefix>/work=/usr/local/src/conda/siesta-5.2.2 -fdebug-prefix-map=<prefix>=/usr/local/src/conda-prefix -I<prefix>/lib -fallow-argument-mismatch -O3
Parallelisations: none
NetCDF support
NetCDF-4 support
Lua support
DFT-D3 support

Runtime information:
* Directory : /v/rconte1/dimer/distance2/runs/run082
* Running in serial mode.
>> Start of run:  28-MAR-2025  16:20:52

                           *********************** 
                           *  WELCOME TO SIESTA  * 
                           *********************** 

 NOTE: Siesta V5 introduces some new defaults for basis-set generation
 NOTE: which might lead to slightly different numerical results.
 NOTE: Please see the manual for full details and compatibility measures.


reinit: Reading from standard input
reinit: Dumping input in INPUT_TMP.78089
************************** Dump of input data file ****************************
#DON'T FORGET TO PUT THE .PSF FILE TO THE SAME DIRECTORY
SystemName          Dimer of Carbon                     # Name of the system we want to investigate
SystemLabel         dimer_distance                           # name of output files
NumberOfAtoms       2                                # how many number in the unit cell? Dimer -> 2 atoms
NumberOfSpecies     1                                # how many different type of atoms? Dimer -> 1
%block ChemicalSpeciesLabel
 1  6  C        # Species index, atomic number, species label
%endblock ChemicalSpeciesLabel
# ----------------------
# STRUCTURAL INFORMATION
# ----------------------
LatticeConstant     1.0 Ang
%block LatticeVectors
   10.000000    0.000000    0.000000
    0.000000   10.000000    0.000000
    0.000000    0.000000   10.000000
%endblock LatticeVectors
AtomicCoordinatesFormat Ang
%block AtomicCoordinatesAndAtomicSpecies
    0.000000     0.000000     0.000000   1
    2.640     0.000000     0.000000   1
%endblock AtomicCoordinatesAndAtomicSpecies
# --
# XC
# --
xc.functional	        GGA	
xc.authors		PBE	
# ----
# GRID
# ----
# MeshCutoff 		200. Ry
# ---------------
# Solution Method
# ---------------
SolutionMethod		diagon
ElectronicTemperature	300 K	
# ---
# SCF
# ---
SCF.DM.Tolerance         5.E-6
SCF.H.Tolerance          5.E-5 eV
SCF.Mix                  Hamiltonian
# SCF.Mix.Spin             all
SCF.Mixer.Method         Pulay
SCF.Mixer.Weight         0.15
SCF.Mixer.Kick           10
SCF.Mixer.History        20
MaxSCFIterations	     200
DM.UseSaveDM	     	 T
SaveHS                   T
# --------------
# OUTPUT OPTIONS
# --------------
WriteEigenvalues       F
WriteForces            T
WriteCoorStep          T
WriteCoorXmol          T     # generate the .xyz file 
WriteMDXmol            T     # generate the .ani file 
WriteMullikenPop       1
Write.HirshfeldPop     T
Write.VoronoiPop       T
Write.DM.NetCDF        T
Write.DMHS.NetCDF      T
************************** End of input data file *****************************

reinit: -----------------------------------------------------------------------
reinit: System Name: Dimer of Carbon
reinit: -----------------------------------------------------------------------
reinit: System Label: dimer_distance
reinit: -----------------------------------------------------------------------

initatom: Reading input for the pseudopotentials and atomic orbitals ----------
Species number:   1 Atomic number:    6 Label: C

Ground state valence configuration (from tables):   2s02  2p02  3d00  4f00

---- Processing specs for species: C
Reading pseudopotential information in formatted form from:
  C.psf

---- Pseudopotential check for  C

Pseudized shells:
2s( 2.00) rc: 1.56
2p( 2.00) rc: 1.56
3d( 0.00) rc: 1.56
4f( 0.00) rc: 1.56
Valence configuration for ps generation: (assumed as above)
For C, standard SIESTA heuristics set lmxkb to 3
 (one more than the basis l, including polarization orbitals).
Use PS.lmax or PS.KBprojectors blocks to override.

<basis_specs>
===============================================================================
C                    Z=   6    Mass=  12.011        Charge= 0.17977+309
Lmxo=2 Lmxkb= 3    BasisType=split      Semic=F
L=0  Nsemic=0  Cnfigmx=2
          i=1  nzeta=2  polorb=0  (2s)
            splnorm:   0.15000    
               vcte:    40.000    
               rinn:  -0.90000    
               qcoe:    0.0000    
               qyuk:    0.0000    
               qwid:   0.10000E-01
                rcs:    0.0000      0.0000    
            lambdas:    1.0000      1.0000    
L=1  Nsemic=0  Cnfigmx=2
          i=1  nzeta=2  polorb=1  (2p)  (to be polarized perturbatively)
            splnorm:   0.15000    
               vcte:    40.000    
               rinn:  -0.90000    
               qcoe:    0.0000    
               qyuk:    0.0000    
               qwid:   0.10000E-01
                rcs:    0.0000      0.0000    
            lambdas:    1.0000      1.0000    
L=2  Nsemic=0  Cnfigmx=3
          i=1  nzeta=0  polorb=0  (3d)  (perturbative polarization orbital) (from 2p)
-------------------------------------------------------------------------------
L=0  Nkbl=1  erefs: 0.17977+309
L=1  Nkbl=1  erefs: 0.17977+309
L=2  Nkbl=1  erefs: 0.17977+309
L=3  Nkbl=1  erefs: 0.17977+309
===============================================================================
</basis_specs>

Using PAO.SplitTailNorm
atom: Called for C                     (Z =   6)
Maximum radius (at nrval) set to   50.00000 8518

read_vps: Pseudopotential generation method:
read_vps: ATM 3.2.2 Troullier-Martins                       
Valence charge in pseudo generation:    4.00000

xc_check: Exchange-correlation functional:
xc_check: GGA Perdew, Burke & Ernzerhof 1996
V l=0 = -2*Zval/r beyond r=  1.5347
V l=1 = -2*Zval/r beyond r=  1.5332
V l=2 = -2*Zval/r beyond r=  1.5347
V l=3 = -2*Zval/r beyond r=  1.5347
All V_l potentials equal beyond r=  1.4890
This should be close to max(r_c) in ps generation
All pots = -2*Zval/r beyond r=  1.5347
Using small-core scheme (local charge) for Vlocal

VLOCAL_FROM_CHLOCAL: 99.0% of the norm of Vloc inside     19.577 Ry
VLOCAL_FROM_CHLOCAL: 99.9% of the norm of Vloc inside     44.617 Ry
atom: Maximum radius for chlocal:    1.77931
atom: Maximum radius for r*vlocal+2*Zval:    1.63022

KBgen: Kleinman-Bylander projectors: 
GHOST: No ghost state for L =  0
   l= 0   rc=  1.646704   el= -1.010689   Ekb=  5.277734   kbcos=  0.315993
GHOST: No ghost state for L =  1
   l= 1   rc=  1.648361   el= -0.388490   Ekb= -4.115733   kbcos= -0.351483
GHOST: No ghost state for L =  2
   l= 2   rc=  1.735131   el=  0.012917   Ekb= -1.012311   kbcos= -0.009283
GHOST: No ghost state for L =  3
   l= 3   rc=  1.777521   el=  0.019225   Ekb= -0.424772   kbcos= -0.001204

KBgen: Total number of Kleinman-Bylander projectors:  16
atom: -------------------------------------------------------------------------

atom: SANKEY-TYPE ORBITALS:
atom: Selected multiple-zeta basis: split     

SPLIT: Orbitals with angular momentum L= 0

SPLIT: Basis orbitals for state 2s

SPLIT: PAO cut-off radius determined from an
SPLIT: energy shift=  0.010000 Ry
Split based on tail norm

   izeta = 1
                 lambda =    1.000000
                     rc =    4.484389
                 energy =   -0.999400
                kinetic =    0.879719
    potential(screened) =   -1.879119
       potential(ionic) =   -5.474723

   izeta = 2
                 rmatch =    3.048210
              splitnorm =    0.150000
                 energy =   -0.737057
                kinetic =    1.553917
    potential(screened) =   -2.290974
       potential(ionic) =   -6.191799

SPLIT: Orbitals with angular momentum L= 1

SPLIT: Basis orbitals for state 2p

SPLIT: PAO cut-off radius determined from an
SPLIT: energy shift=  0.010000 Ry
Split based on tail norm

   izeta = 1
                 lambda =    1.000000
                     rc =    5.435719
                 energy =   -0.377283
                kinetic =    2.459011
    potential(screened) =   -2.836294
       potential(ionic) =   -6.303833

   izeta = 2
                 rmatch =    3.691839
              splitnorm =    0.150000
                 energy =   -0.247686
                kinetic =    3.567780
    potential(screened) =   -3.815466
       potential(ionic) =   -7.634895

POLgen: Perturbative polarization orbital with L=  2

POLgen: Polarization orbital for state 2p
Split based on tail norm

   izeta = 1
                     rc =    5.435719
                 energy =    1.173953
                kinetic =    2.358612
    potential(screened) =   -1.184659
       potential(ionic) =   -4.054396
atom: Total number of Sankey-type orbitals: 13

atm_pop: Valence configuration (for local Pseudopot. screening):
 2s( 2.00)                                                            
 2p( 2.00)                                                            
 3d( 0.00)                                                            
Vna: chval, zval:    4.00000   4.00000

Vna:  Cut-off radius for the neutral-atom potential:   5.435719

atom: _________________________________________________________________________

prinput: Basis input 

PAO.BasisType split     

%block ChemicalSpeciesLabel
    1    6 C                       # Species index, atomic number, species label
%endblock ChemicalSpeciesLabel

%block PAO.Basis                 # Define Basis set
# WARNING: This information might be incomplete!
C                     2                    # Species label, number of l-shells
 n=2   0   2                         # n, l, Nzeta 
   4.484      3.048   
   1.000      1.000   
 n=2   1   2 P   1                   # n, l, Nzeta, Polarization, NzetaPol
   5.436      3.692   
   1.000      1.000   
%endblock PAO.Basis

prinput: ----------------------------------------------------------------------

Dumping basis to NetCDF file C.ion.nc
coor:   Atomic-coordinates input format  =     Cartesian coordinates
coor:                                          (in Angstroms)

siesta: Atomic coordinates (Bohr) and species
siesta:      0.00000   0.00000   0.00000  1        1
siesta:      4.98888   0.00000   0.00000  1        2

siesta: System type = molecule  

initatomlists: Number of atoms, orbitals, and projectors:      2    26    32

coxmol: Writing XMOL coordinates into file dimer_distance.xyz                                                                                                                                                                                                                  

siesta: ******************** Simulation parameters ****************************
siesta:
siesta: The following are some of the parameters of the simulation.
siesta: A complete list of the parameters used, including default values,
siesta: can be found in file out.fdf
siesta:
redata: Spin configuration                          = none
redata: Number of spin components                   = 1
redata: Time-Reversal Symmetry                      = T
redata: Spin spiral                                 = F
redata: Long output                                 =   F
redata: Number of Atomic Species                    =        1
redata: Charge density info will appear in .RHO file
redata: Write Mulliken charges (when)               = geometry+end
redata: Write Mulliken Pop.                         = Atomic and Orbital charges
redata: Write Hirshfeld charges (when)              = end
redata: Write Voronoi charges (when)                = end
redata: Write spin charge (when)                    = none
redata: Matel table size (NRTAB)                    =     1024
redata: Mesh Cutoff                                 =   300.0000 Ry
redata: Net charge of the system                    =     0.0000 |e|
redata: Min. number of SCF Iter                     =        0
redata: Max. number of SCF Iter                     =      200
redata: SCF convergence failure will abort job
redata: SCF mix quantity                            = Hamiltonian
redata: Mix DM or H after convergence               =   F
redata: Recompute H after scf cycle                 =   F
redata: Mix DM in first SCF step                    =   T
redata: Write Pulay info on disk                    =   F
redata: New DM Occupancy tolerance                  = 0.000000000001
redata: No kicks to SCF
redata: DM Mixing Weight for Kicks                  =     0.5000
redata: Require Harris convergence for SCF          =   F
redata: Harris energy tolerance for SCF             =     0.000100 eV
redata: Require DM convergence for SCF              =   T
redata: DM tolerance for SCF                        =     0.000005
redata: Require EDM convergence for SCF             =   F
redata: EDM tolerance for SCF                       =     0.001000 eV
redata: Require H convergence for SCF               =   T
redata: Hamiltonian tolerance for SCF               =     0.000050 eV
redata: Require (free) Energy convergence for SCF   =   F
redata: (free) Energy tolerance for SCF             =     0.000100 eV
redata: Using DFT-D3 dispersion                     =   F
redata: Using Saved Data (generic)                  =   F
redata: Use continuation files for DM               =   T
redata: Neglect nonoverlap interactions             =   F
redata: Method of Calculation                       = Diagonalization
redata: Electronic Temperature                      =   300.0000 K
redata: Fix the spin of the system                  =   F
redata: Max. number of TDED Iter                    =        1
redata: Number of TDED substeps                     =        3
redata: Dynamics option                             = Single-point calculation
mix.SCF: Pulay mixing                            = Pulay
mix.SCF:    Variant                              = stable
mix.SCF:    History steps                        = 9
mix.SCF:    Linear mixing weight                 =     0.150000
mix.SCF:    Mixing weight                        =     0.150000
mix.SCF:    SVD condition                        = 0.1000E-07
mix.SCF:    Restart steps                        = 9
mix.SCF:    Restart save steps                   = 1
mix.SCF:    Number of mixing iterations          = 9
mix.SCF:    Following mixer                      = Linear-Kick
mix.SCF: Linear mixing                           = Linear-Kick
mix.SCF:    Mixing weight                        =     0.500000
mix.SCF:    Number of mixing iterations          = 1
mix.SCF:    Following mixer                      = Pulay
redata: Save all siesta data in one NC              =   F
redata: ***********************************************************************

%block SCF.Mixers
  Pulay
  Linear-Kick
%endblock SCF.Mixers

%block SCF.Mixer.Pulay
  # Mixing method
  method pulay
  variant stable

  # Mixing options
  weight 0.1500
  weight.linear 0.1500
  history 9
  restart 9
  restart.save 1

  # Continuation options
  iterations 9
  next Linear-Kick
%endblock SCF.Mixer.Pulay

%block SCF.Mixer.Linear-Kick
  # Mixing method
  method linear

  # Mixing options
  weight 0.5000

  # Continuation options
  iterations 1
  next Pulay
%endblock SCF.Mixer.Linear-Kick

DM_history_depth set to one: no extrapolation allowed by default for geometry relaxation
Size of DM history Fstack: 1
Total number of electrons:     8.000000
Total ionic charge:     8.000000

siesta: k-grid: Number of k-points = 1
siesta: k-point is Gamma-only

diag: Algorithm                                     = D&C
diag: Used triangular part                          = Lower
diag: Absolute tolerance                            =  0.100E-15
diag: Orthogonalization factor                      =  0.100E-05
diag: Memory factor                                 =  1.0000


ts: **************************************************************
ts: Save H and S matrices                           =    F
ts: Save DM and EDM matrices                        =    F
ts: Only save the overlap matrix S                  =    F
ts: **************************************************************

************************ Begin: TS CHECKS AND WARNINGS ************************
************************ End: TS CHECKS AND WARNINGS **************************


                     ====================================
                        Single-point calculation
                     ====================================

outcoor: Atomic coordinates (Ang):                          
    0.00000000    0.00000000    0.00000000   1       1  C
    2.64000000    0.00000000    0.00000000   1       2  C

outcell: Unit cell vectors (Ang):
       10.000000    0.000000    0.000000
        0.000000   10.000000    0.000000
        0.000000    0.000000   10.000000

outcell: Cell vector modules (Ang)   :   10.000000   10.000000   10.000000
outcell: Cell angles (23,13,12) (deg):     90.0000     90.0000     90.0000
outcell: Cell volume (Ang**3)        :   1000.0000
<dSpData1D:S at geom step 0
  <sparsity:sparsity for geom step 0
    nrows_g=26 nrows=26 sparsity=1.0000 nnzs=676, refcount: 7>
  <dData1D:(new from dSpData1D) n=676, refcount: 1>
refcount: 1>
new_DM -- step:     1
Initializing Density Matrix...

Attempting to read DM from file... Failed...
DM filled with atomic data:
<dSpData2D:DM initialized from atoms
  <sparsity:sparsity for geom step 0
    nrows_g=26 nrows=26 sparsity=1.0000 nnzs=676, refcount: 8>
  <dData2D:DM n=676 m=1, refcount: 1>
refcount: 1>
No. of atoms with KB's overlaping orbs in proc 0. Max # of overlaps:       2      25

InitMesh: MESH = 108 x 108 x 108 = 1259712
InitMesh: Mesh cutoff (required, used) =   300.000   322.366 Ry
New grid distribution [1]: sub = 2

stepf: Fermi-Dirac step function

siesta: Program's energy decomposition (eV):
siesta: Ebs     =       -74.527260
siesta: Eions   =       522.735435
siesta: Ena     =       129.865801
siesta: Ekin    =       164.593293
siesta: Enl     =         3.151918
siesta: Eso     =         0.000000
siesta: Edftu   =         0.000000
siesta: DEna    =         8.766703
siesta: DUscf   =         0.624625
siesta: DUext   =         0.000000
siesta: Ex      =       -71.104276
siesta: Ec      =        -6.510114
siesta: Exc     =       -77.614390
siesta: EbV     =         0.000000
siesta: eta*DQ  =         0.000000
siesta: Emadel  =         0.000000
siesta: Emeta   =         0.000000
siesta: Emolmec =         0.000000
siesta: Ekinion =         0.000000
siesta: Eharris =      -295.594107
siesta: Etot    =      -293.347486
siesta: FreeEng =      -293.419163

        iscf     Eharris(eV)        E_KS(eV)     FreeEng(eV)     dDmax    Ef(eV) dHmax(eV)
   scf:    1     -295.594107     -293.347486     -293.419163  0.887322 -4.337728  1.109170
timer: Routine,Calls,Time,% = IterSCF        1       0.578  23.17
   scf:    2     -293.384639     -293.366449     -293.438126  0.020874 -4.461965  0.855052
   scf:    3     -293.416320     -293.395279     -293.466956  0.067580 -4.861059  0.085645
   scf:    4     -293.393555     -293.394947     -293.466624  0.005220 -4.863255  0.132091
   scf:    5     -293.396480     -293.396055     -293.467732  0.008547 -4.874347  0.023508
   scf:    6     -293.395940     -293.396014     -293.467691  0.004587 -4.845312  0.052619
   scf:    7     -293.396119     -293.396079     -293.467756  0.003084 -4.868161  0.000293
   scf:    8     -293.396079     -293.396079     -293.467756  0.000092 -4.868191  0.000495
   scf:    9     -293.396079     -293.396079     -293.467756  0.000016 -4.868148  0.000091
mix: Pulay -- resetting history
mix: switching mixer --> Linear-Kick
   scf:   10     -293.396079     -293.396079     -293.467756  0.000006 -4.868108  0.000015
mix: switching mixer --> Pulay
   scf:   11     -293.396079     -293.396079     -293.467756  0.000009 -4.868108  0.000229
   scf:   12     -293.396079     -293.396079     -293.467756  0.000014 -4.868139  0.000149
   scf:   13     -293.396079     -293.396079     -293.467756  0.000006 -4.868108  0.000001
   scf:   14     -293.396079     -293.396079     -293.467756  0.000000 -4.868108  0.000000

SCF Convergence by DM+H criterion
max |DM_out - DM_in|         :     0.0000000709
max |H_out - H_in|      (eV) :     0.0000002077
SCF cycle converged after 14 iterations

Using DM_out to compute the final energy and forces
No. of atoms with KB's overlaping orbs in proc 0. Max # of overlaps:       2      25

siesta: E_KS(eV) =             -293.3961

siesta: E_KS - E_eggbox =      -293.3961

siesta: Atomic forces (eV/Ang):
     1    3.209840    0.000000   -0.000000
     2   -3.202078    0.000000    0.000000
----------------------------------------
   Tot    0.007762    0.000000   -0.000000
----------------------------------------
   Max    3.209840
   Res    1.850963    sqrt( Sum f_i^2 / 3N )
----------------------------------------
   Max    3.209840    constrained

Stress tensor Voigt[x,y,z,yz,xz,xy] (kbar):       13.57        0.00        0.00        0.00       -0.00       -0.00
(Free)E + p*V (eV/cell)     -296.2920
Target enthalpy (eV/cell)     -293.4678

mulliken: Atomic and Orbital Populations:

Species: C                   
Atom  Qatom  Qorb
               2s      2s      2py     2pz     2px     2py     2pz     2px     
               3Pdxy   3Pdyz   3Pdz2   3Pdxz   3Pdx2-y2
   1  4.000   1.969   0.007   0.529   0.529   1.037  -0.029  -0.029  -0.018
              0.001   0.000   0.001   0.001   0.003
   2  4.000   1.969   0.006   0.529   0.529   1.037  -0.029  -0.029  -0.017
              0.001   0.000   0.001   0.001   0.003

mulliken: Qtot =        8.000

Mulliken Atomic Populations:
Atom #   charge [q] valence [e]  Species
     1    -0.000024    4.000024  C
     2     0.000024    3.999976  C
--------------------
 Total     0.000000

coxmol: Writing XMOL coordinates into file dimer_distance.xyz                                                                                                                                                                                                                  

siesta: Program's energy decomposition (eV):
siesta: Ebs     =       -72.074951
siesta: Eions   =       522.735435
siesta: Ena     =       129.865801
siesta: Ekin    =       168.419636
siesta: Enl     =         2.785090
siesta: Eso     =         0.000000
siesta: Edftu   =         0.000000
siesta: DEna    =         6.219915
siesta: DUscf   =         0.466298
siesta: DUext   =         0.000000
siesta: Ex      =       -71.889027
siesta: Ec      =        -6.528357
siesta: Exc     =       -78.417385
siesta: EbV     =         0.000000
siesta: eta*DQ  =         0.000000
siesta: Emadel  =         0.000000
siesta: Emeta   =         0.000000
siesta: Emolmec =         0.000000
siesta: Ekinion =         0.000000
siesta: Eharris =      -293.396079
siesta: Etot    =      -293.396079
siesta: FreeEng =      -293.467756

siesta: Final energy (eV):
siesta:  Band Struct. =     -72.074951
siesta:       Kinetic =     168.419636
siesta:       Hartree =     206.223880
siesta:         Edftu =       0.000000
siesta:       Eso     =       0.000000
siesta:    Ext. field =       0.000000
siesta:         Exch. =     -71.889027
siesta:         Corr. =      -6.528357
siesta:     Bulk bias =       0.000000
siesta:   Exch.-corr. =     -78.417385
siesta:  Ion-electron =    -551.544104
siesta:       Ion-ion =     -38.078107
siesta:       Ekinion =       0.000000
siesta: D3 dispersion =       0.000000
siesta:         Total =    -293.396079
siesta:         Fermi =      -4.868108

siesta: Atomic forces (eV/Ang):
siesta:      1    3.209840    0.000000   -0.000000
siesta:      2   -3.202078    0.000000    0.000000
siesta: ----------------------------------------
siesta:    Tot    0.007762    0.000000   -0.000000

siesta: Stress tensor (static) (eV/Ang**3):
siesta:     0.008472   -0.000000    0.000000
siesta:    -0.000000    0.000000   -0.000000
siesta:    -0.000000    0.000000    0.000000

siesta: Cell volume =       1000.000000 Ang**3

siesta: Pressure (static):
siesta:                Solid            Molecule  Units
siesta:          -0.00003076         -0.00000003  Ry/Bohr**3
siesta:          -0.00282422         -0.00000297  eV/Ang**3
siesta:          -4.52489153         -0.00476071  kBar
(Free)E+ p_basis*V_orbitals  =        -292.708352
(Free)Eharris+ p_basis*V_orbitals  =        -292.708352

mulliken: Atomic and Orbital Populations:

Species: C                   
Atom  Qatom  Qorb
               2s      2s      2py     2pz     2px     2py     2pz     2px     
               3Pdxy   3Pdyz   3Pdz2   3Pdxz   3Pdx2-y2
   1  4.000   1.969   0.007   0.529   0.529   1.037  -0.029  -0.029  -0.018
              0.001   0.000   0.001   0.001   0.003
   2  4.000   1.969   0.006   0.529   0.529   1.037  -0.029  -0.029  -0.017
              0.001   0.000   0.001   0.001   0.003

mulliken: Qtot =        8.000

Mulliken Atomic Populations:
Atom #   charge [q] valence [e]  Species
     1    -0.000024    4.000024  C
     2     0.000024    3.999976  C
--------------------
 Total     0.000000

siesta: Electric dipole (a.u.)  =    0.000012    0.000000   -0.000000
siesta: Electric dipole (Debye) =    0.000030    0.000000   -0.000000

Hirshfeld Atomic Populations:
Atom #   charge [q] valence [e]  Species
     1    -0.000004    4.000004  C
     2     0.000004    3.999996  C
--------------------
 Total    -0.000000

Voronoi Atomic Populations:
Atom #   charge [q] valence [e]  Species
     1    -0.005424    4.005424  C
     2     0.005424    3.994576  C
--------------------
 Total    -0.000000

cite: Please indicate the Siesta version in published work: 5.2.2
cite: This calculation has made use of features in the following articles
cite: which we encourage you to cite in published work.
cite: (Please see "dimer_distance.bib" for a BibTeX file.)
        Primary SIESTA paper
          DOI: www.doi.org/10.1088/0953-8984/14/11/302


timer: Elapsed wall time (sec) =      11.093
timer: CPU execution times (sec):

Routine            Calls   Time/call    Tot.time        %
siesta                 1      10.753      10.753   100.00
Setup                  1       0.148       0.148     1.37
bands                  1       0.000       0.000     0.00
KSV_init               1       0.000       0.000     0.00
IterGeom               1       9.771       9.771    90.87
geom_init              1       1.770       1.770    16.46
state_init             1       0.157       0.157     1.46
hsparse                1       0.000       0.000     0.00
overlap                1       0.156       0.156     1.45
Setup_H0               1       1.086       1.086    10.10
naefs                  2       0.000       0.000     0.00
dnaefs                 2       0.000       0.000     0.00
MolMec                 2       0.000       0.000     0.00
kinefsm                2       0.073       0.146     1.36
nlefsm                 2       0.233       0.465     4.33
DHSCF_Init             1       0.477       0.477     4.43
DHSCF1                 1       0.046       0.046     0.43
InitMesh               1       0.046       0.046     0.43
INITMESH               1       0.000       0.000     0.00
DHSCF2                 1       0.431       0.431     4.00
REMESH                 1       0.017       0.017     0.16
REORD                 43       0.003       0.125     1.17
PHION                  1       0.248       0.248     2.31
COMM_BSC              72       0.002       0.149     1.39
POISON                18       0.106       1.901    17.68
fft                   36       0.036       1.278    11.89
setup_H               15       0.514       7.713    71.74
DHSCF                 17       0.547       9.296    86.46
DHSCF3                17       0.529       8.998    83.68
rhoofd                17       0.033       0.561     5.22
XC                    17       0.311       5.286    49.16
GXC-CellXC            17       0.301       5.113    47.55
gridxc@cellXC         17       0.301       5.113    47.55
vmat                  16       0.023       0.373     3.47
IterSCF               14       0.514       7.199    66.95
compute_dm            14       0.000       0.005     0.05
diagon                14       0.000       0.005     0.04
r-eigvec              14       0.000       0.003     0.03
r-buildHS             14       0.000       0.000     0.00
rdiag                 14       0.000       0.003     0.03
rdiag1                14       0.000       0.000     0.00
rdiag2                14       0.000       0.000     0.00
rdiag3                14       0.000       0.002     0.02
rdiag4                14       0.000       0.000     0.00
r-buildD              14       0.000       0.001     0.01
MIXER                 13       0.000       0.001     0.01
PostSCF                1       0.801       0.801     7.45
FINAL_HF               1       0.801       0.801     7.45
DHSCF4                 1       0.299       0.299     2.78
dfscf                  1       0.258       0.258     2.40
overfsm                1       0.000       0.000     0.00
writeHSX               1       0.000       0.000     0.00
state_analysis         1       0.001       0.001     0.01
siesta_move            1       0.000       0.000     0.00
Analysis               1       0.831       0.831     7.73
optical                1       0.000       0.000     0.00
partial-charges        1       0.334       0.334     3.11
  

>> End of run:  28-MAR-2025  16:21:03
Job completed
