Executable      : siesta
Version         : 5.2.2
Architecture    : x86_64
Compiler version: GNU-13.3.0
Compiler flags  : -march=nocona -mtune=haswell -ftree-vectorize -fPIC -fstack-protector-strong -fno-plt -O2 -ffunction-sections -pipe -isystem <prefix>/include -I<prefix>/_build_env/include -fdebug-prefix-map=<prefix>/work=/usr/local/src/conda/siesta-5.2.2 -fdebug-prefix-map=<prefix>=/usr/local/src/conda-prefix -I<prefix>/lib -fallow-argument-mismatch -O3
Parallelisations: none
NetCDF support
NetCDF-4 support
Lua support
DFT-D3 support

Runtime information:
* Directory : /v/rconte1/dimer/distance2/runs/run036
* Running in serial mode.
>> Start of run:  28-MAR-2025  16:13:38

                           *********************** 
                           *  WELCOME TO SIESTA  * 
                           *********************** 

 NOTE: Siesta V5 introduces some new defaults for basis-set generation
 NOTE: which might lead to slightly different numerical results.
 NOTE: Please see the manual for full details and compatibility measures.


reinit: Reading from standard input
reinit: Dumping input in INPUT_TMP.44358
************************** Dump of input data file ****************************
#DON'T FORGET TO PUT THE .PSF FILE TO THE SAME DIRECTORY
SystemName          Dimer of Carbon                     # Name of the system we want to investigate
SystemLabel         dimer_distance                           # name of output files
NumberOfAtoms       2                                # how many number in the unit cell? Dimer -> 2 atoms
NumberOfSpecies     1                                # how many different type of atoms? Dimer -> 1
%block ChemicalSpeciesLabel
 1  6  C        # Species index, atomic number, species label
%endblock ChemicalSpeciesLabel
# ----------------------
# STRUCTURAL INFORMATION
# ----------------------
LatticeConstant     1.0 Ang
%block LatticeVectors
   10.000000    0.000000    0.000000
    0.000000   10.000000    0.000000
    0.000000    0.000000   10.000000
%endblock LatticeVectors
AtomicCoordinatesFormat Ang
%block AtomicCoordinatesAndAtomicSpecies
    0.000000     0.000000     0.000000   1
    1.720     0.000000     0.000000   1
%endblock AtomicCoordinatesAndAtomicSpecies
# --
# XC
# --
xc.functional	        GGA	
xc.authors		PBE	
# ----
# GRID
# ----
# MeshCutoff 		200. Ry
# ---------------
# Solution Method
# ---------------
SolutionMethod		diagon
ElectronicTemperature	300 K	
# ---
# SCF
# ---
SCF.DM.Tolerance         5.E-6
SCF.H.Tolerance          5.E-5 eV
SCF.Mix                  Hamiltonian
# SCF.Mix.Spin             all
SCF.Mixer.Method         Pulay
SCF.Mixer.Weight         0.15
SCF.Mixer.Kick           10
SCF.Mixer.History        20
MaxSCFIterations	     200
DM.UseSaveDM	     	 T
SaveHS                   T
# --------------
# OUTPUT OPTIONS
# --------------
WriteEigenvalues       F
WriteForces            T
WriteCoorStep          T
WriteCoorXmol          T     # generate the .xyz file 
WriteMDXmol            T     # generate the .ani file 
WriteMullikenPop       1
Write.HirshfeldPop     T
Write.VoronoiPop       T
Write.DM.NetCDF        T
Write.DMHS.NetCDF      T
************************** End of input data file *****************************

reinit: -----------------------------------------------------------------------
reinit: System Name: Dimer of Carbon
reinit: -----------------------------------------------------------------------
reinit: System Label: dimer_distance
reinit: -----------------------------------------------------------------------

initatom: Reading input for the pseudopotentials and atomic orbitals ----------
Species number:   1 Atomic number:    6 Label: C

Ground state valence configuration (from tables):   2s02  2p02  3d00  4f00

---- Processing specs for species: C
Reading pseudopotential information in formatted form from:
  C.psf

---- Pseudopotential check for  C

Pseudized shells:
2s( 2.00) rc: 1.56
2p( 2.00) rc: 1.56
3d( 0.00) rc: 1.56
4f( 0.00) rc: 1.56
Valence configuration for ps generation: (assumed as above)
For C, standard SIESTA heuristics set lmxkb to 3
 (one more than the basis l, including polarization orbitals).
Use PS.lmax or PS.KBprojectors blocks to override.

<basis_specs>
===============================================================================
C                    Z=   6    Mass=  12.011        Charge= 0.17977+309
Lmxo=2 Lmxkb= 3    BasisType=split      Semic=F
L=0  Nsemic=0  Cnfigmx=2
          i=1  nzeta=2  polorb=0  (2s)
            splnorm:   0.15000    
               vcte:    40.000    
               rinn:  -0.90000    
               qcoe:    0.0000    
               qyuk:    0.0000    
               qwid:   0.10000E-01
                rcs:    0.0000      0.0000    
            lambdas:    1.0000      1.0000    
L=1  Nsemic=0  Cnfigmx=2
          i=1  nzeta=2  polorb=1  (2p)  (to be polarized perturbatively)
            splnorm:   0.15000    
               vcte:    40.000    
               rinn:  -0.90000    
               qcoe:    0.0000    
               qyuk:    0.0000    
               qwid:   0.10000E-01
                rcs:    0.0000      0.0000    
            lambdas:    1.0000      1.0000    
L=2  Nsemic=0  Cnfigmx=3
          i=1  nzeta=0  polorb=0  (3d)  (perturbative polarization orbital) (from 2p)
-------------------------------------------------------------------------------
L=0  Nkbl=1  erefs: 0.17977+309
L=1  Nkbl=1  erefs: 0.17977+309
L=2  Nkbl=1  erefs: 0.17977+309
L=3  Nkbl=1  erefs: 0.17977+309
===============================================================================
</basis_specs>

Using PAO.SplitTailNorm
atom: Called for C                     (Z =   6)
Maximum radius (at nrval) set to   50.00000 8518

read_vps: Pseudopotential generation method:
read_vps: ATM 3.2.2 Troullier-Martins                       
Valence charge in pseudo generation:    4.00000

xc_check: Exchange-correlation functional:
xc_check: GGA Perdew, Burke & Ernzerhof 1996
V l=0 = -2*Zval/r beyond r=  1.5347
V l=1 = -2*Zval/r beyond r=  1.5332
V l=2 = -2*Zval/r beyond r=  1.5347
V l=3 = -2*Zval/r beyond r=  1.5347
All V_l potentials equal beyond r=  1.4890
This should be close to max(r_c) in ps generation
All pots = -2*Zval/r beyond r=  1.5347
Using small-core scheme (local charge) for Vlocal

VLOCAL_FROM_CHLOCAL: 99.0% of the norm of Vloc inside     19.577 Ry
VLOCAL_FROM_CHLOCAL: 99.9% of the norm of Vloc inside     44.617 Ry
atom: Maximum radius for chlocal:    1.77931
atom: Maximum radius for r*vlocal+2*Zval:    1.63022

KBgen: Kleinman-Bylander projectors: 
GHOST: No ghost state for L =  0
   l= 0   rc=  1.646704   el= -1.010689   Ekb=  5.277734   kbcos=  0.315993
GHOST: No ghost state for L =  1
   l= 1   rc=  1.648361   el= -0.388490   Ekb= -4.115733   kbcos= -0.351483
GHOST: No ghost state for L =  2
   l= 2   rc=  1.735131   el=  0.012917   Ekb= -1.012311   kbcos= -0.009283
GHOST: No ghost state for L =  3
   l= 3   rc=  1.777521   el=  0.019225   Ekb= -0.424772   kbcos= -0.001204

KBgen: Total number of Kleinman-Bylander projectors:  16
atom: -------------------------------------------------------------------------

atom: SANKEY-TYPE ORBITALS:
atom: Selected multiple-zeta basis: split     

SPLIT: Orbitals with angular momentum L= 0

SPLIT: Basis orbitals for state 2s

SPLIT: PAO cut-off radius determined from an
SPLIT: energy shift=  0.010000 Ry
Split based on tail norm

   izeta = 1
                 lambda =    1.000000
                     rc =    4.484389
                 energy =   -0.999400
                kinetic =    0.879719
    potential(screened) =   -1.879119
       potential(ionic) =   -5.474723

   izeta = 2
                 rmatch =    3.048210
              splitnorm =    0.150000
                 energy =   -0.737057
                kinetic =    1.553917
    potential(screened) =   -2.290974
       potential(ionic) =   -6.191799

SPLIT: Orbitals with angular momentum L= 1

SPLIT: Basis orbitals for state 2p

SPLIT: PAO cut-off radius determined from an
SPLIT: energy shift=  0.010000 Ry
Split based on tail norm

   izeta = 1
                 lambda =    1.000000
                     rc =    5.435719
                 energy =   -0.377283
                kinetic =    2.459011
    potential(screened) =   -2.836294
       potential(ionic) =   -6.303833

   izeta = 2
                 rmatch =    3.691839
              splitnorm =    0.150000
                 energy =   -0.247686
                kinetic =    3.567780
    potential(screened) =   -3.815466
       potential(ionic) =   -7.634895

POLgen: Perturbative polarization orbital with L=  2

POLgen: Polarization orbital for state 2p
Split based on tail norm

   izeta = 1
                     rc =    5.435719
                 energy =    1.173953
                kinetic =    2.358612
    potential(screened) =   -1.184659
       potential(ionic) =   -4.054396
atom: Total number of Sankey-type orbitals: 13

atm_pop: Valence configuration (for local Pseudopot. screening):
 2s( 2.00)                                                            
 2p( 2.00)                                                            
 3d( 0.00)                                                            
Vna: chval, zval:    4.00000   4.00000

Vna:  Cut-off radius for the neutral-atom potential:   5.435719

atom: _________________________________________________________________________

prinput: Basis input 

PAO.BasisType split     

%block ChemicalSpeciesLabel
    1    6 C                       # Species index, atomic number, species label
%endblock ChemicalSpeciesLabel

%block PAO.Basis                 # Define Basis set
# WARNING: This information might be incomplete!
C                     2                    # Species label, number of l-shells
 n=2   0   2                         # n, l, Nzeta 
   4.484      3.048   
   1.000      1.000   
 n=2   1   2 P   1                   # n, l, Nzeta, Polarization, NzetaPol
   5.436      3.692   
   1.000      1.000   
%endblock PAO.Basis

prinput: ----------------------------------------------------------------------

Dumping basis to NetCDF file C.ion.nc
coor:   Atomic-coordinates input format  =     Cartesian coordinates
coor:                                          (in Angstroms)

siesta: Atomic coordinates (Bohr) and species
siesta:      0.00000   0.00000   0.00000  1        1
siesta:      3.25033   0.00000   0.00000  1        2

siesta: System type = molecule  

initatomlists: Number of atoms, orbitals, and projectors:      2    26    32

coxmol: Writing XMOL coordinates into file dimer_distance.xyz                                                                                                                                                                                                                  

siesta: ******************** Simulation parameters ****************************
siesta:
siesta: The following are some of the parameters of the simulation.
siesta: A complete list of the parameters used, including default values,
siesta: can be found in file out.fdf
siesta:
redata: Spin configuration                          = none
redata: Number of spin components                   = 1
redata: Time-Reversal Symmetry                      = T
redata: Spin spiral                                 = F
redata: Long output                                 =   F
redata: Number of Atomic Species                    =        1
redata: Charge density info will appear in .RHO file
redata: Write Mulliken charges (when)               = geometry+end
redata: Write Mulliken Pop.                         = Atomic and Orbital charges
redata: Write Hirshfeld charges (when)              = end
redata: Write Voronoi charges (when)                = end
redata: Write spin charge (when)                    = none
redata: Matel table size (NRTAB)                    =     1024
redata: Mesh Cutoff                                 =   300.0000 Ry
redata: Net charge of the system                    =     0.0000 |e|
redata: Min. number of SCF Iter                     =        0
redata: Max. number of SCF Iter                     =      200
redata: SCF convergence failure will abort job
redata: SCF mix quantity                            = Hamiltonian
redata: Mix DM or H after convergence               =   F
redata: Recompute H after scf cycle                 =   F
redata: Mix DM in first SCF step                    =   T
redata: Write Pulay info on disk                    =   F
redata: New DM Occupancy tolerance                  = 0.000000000001
redata: No kicks to SCF
redata: DM Mixing Weight for Kicks                  =     0.5000
redata: Require Harris convergence for SCF          =   F
redata: Harris energy tolerance for SCF             =     0.000100 eV
redata: Require DM convergence for SCF              =   T
redata: DM tolerance for SCF                        =     0.000005
redata: Require EDM convergence for SCF             =   F
redata: EDM tolerance for SCF                       =     0.001000 eV
redata: Require H convergence for SCF               =   T
redata: Hamiltonian tolerance for SCF               =     0.000050 eV
redata: Require (free) Energy convergence for SCF   =   F
redata: (free) Energy tolerance for SCF             =     0.000100 eV
redata: Using DFT-D3 dispersion                     =   F
redata: Using Saved Data (generic)                  =   F
redata: Use continuation files for DM               =   T
redata: Neglect nonoverlap interactions             =   F
redata: Method of Calculation                       = Diagonalization
redata: Electronic Temperature                      =   300.0000 K
redata: Fix the spin of the system                  =   F
redata: Max. number of TDED Iter                    =        1
redata: Number of TDED substeps                     =        3
redata: Dynamics option                             = Single-point calculation
mix.SCF: Pulay mixing                            = Pulay
mix.SCF:    Variant                              = stable
mix.SCF:    History steps                        = 9
mix.SCF:    Linear mixing weight                 =     0.150000
mix.SCF:    Mixing weight                        =     0.150000
mix.SCF:    SVD condition                        = 0.1000E-07
mix.SCF:    Restart steps                        = 9
mix.SCF:    Restart save steps                   = 1
mix.SCF:    Number of mixing iterations          = 9
mix.SCF:    Following mixer                      = Linear-Kick
mix.SCF: Linear mixing                           = Linear-Kick
mix.SCF:    Mixing weight                        =     0.500000
mix.SCF:    Number of mixing iterations          = 1
mix.SCF:    Following mixer                      = Pulay
redata: Save all siesta data in one NC              =   F
redata: ***********************************************************************

%block SCF.Mixers
  Pulay
  Linear-Kick
%endblock SCF.Mixers

%block SCF.Mixer.Pulay
  # Mixing method
  method pulay
  variant stable

  # Mixing options
  weight 0.1500
  weight.linear 0.1500
  history 9
  restart 9
  restart.save 1

  # Continuation options
  iterations 9
  next Linear-Kick
%endblock SCF.Mixer.Pulay

%block SCF.Mixer.Linear-Kick
  # Mixing method
  method linear

  # Mixing options
  weight 0.5000

  # Continuation options
  iterations 1
  next Pulay
%endblock SCF.Mixer.Linear-Kick

DM_history_depth set to one: no extrapolation allowed by default for geometry relaxation
Size of DM history Fstack: 1
Total number of electrons:     8.000000
Total ionic charge:     8.000000

siesta: k-grid: Number of k-points = 1
siesta: k-point is Gamma-only

diag: Algorithm                                     = D&C
diag: Used triangular part                          = Lower
diag: Absolute tolerance                            =  0.100E-15
diag: Orthogonalization factor                      =  0.100E-05
diag: Memory factor                                 =  1.0000


ts: **************************************************************
ts: Save H and S matrices                           =    F
ts: Save DM and EDM matrices                        =    F
ts: Only save the overlap matrix S                  =    F
ts: **************************************************************

************************ Begin: TS CHECKS AND WARNINGS ************************
************************ End: TS CHECKS AND WARNINGS **************************


                     ====================================
                        Single-point calculation
                     ====================================

outcoor: Atomic coordinates (Ang):                          
    0.00000000    0.00000000    0.00000000   1       1  C
    1.72000000    0.00000000    0.00000000   1       2  C

outcell: Unit cell vectors (Ang):
       10.000000    0.000000    0.000000
        0.000000   10.000000    0.000000
        0.000000    0.000000   10.000000

outcell: Cell vector modules (Ang)   :   10.000000   10.000000   10.000000
outcell: Cell angles (23,13,12) (deg):     90.0000     90.0000     90.0000
outcell: Cell volume (Ang**3)        :   1000.0000
<dSpData1D:S at geom step 0
  <sparsity:sparsity for geom step 0
    nrows_g=26 nrows=26 sparsity=1.0000 nnzs=676, refcount: 7>
  <dData1D:(new from dSpData1D) n=676, refcount: 1>
refcount: 1>
new_DM -- step:     1
Initializing Density Matrix...

Attempting to read DM from file... Failed...
DM filled with atomic data:
<dSpData2D:DM initialized from atoms
  <sparsity:sparsity for geom step 0
    nrows_g=26 nrows=26 sparsity=1.0000 nnzs=676, refcount: 8>
  <dData2D:DM n=676 m=1, refcount: 1>
refcount: 1>
No. of atoms with KB's overlaping orbs in proc 0. Max # of overlaps:       2      26

InitMesh: MESH = 108 x 108 x 108 = 1259712
InitMesh: Mesh cutoff (required, used) =   300.000   322.366 Ry
New grid distribution [1]: sub = 2

stepf: Fermi-Dirac step function

siesta: Program's energy decomposition (eV):
siesta: Ebs     =       -80.788821
siesta: Eions   =       522.735435
siesta: Ena     =       127.975000
siesta: Ekin    =       174.048553
siesta: Enl     =        -0.536966
siesta: Eso     =         0.000000
siesta: Edftu   =         0.000000
siesta: DEna    =         4.415403
siesta: DUscf   =         1.084935
siesta: DUext   =         0.000000
siesta: Ex      =       -74.817484
siesta: Ec      =        -6.926740
siesta: Exc     =       -81.744224
siesta: EbV     =         0.000000
siesta: eta*DQ  =         0.000000
siesta: Emadel  =         0.000000
siesta: Emeta   =         0.000000
siesta: Emolmec =         0.000000
siesta: Ekinion =         0.000000
siesta: Eharris =      -300.275600
siesta: Etot    =      -297.492734
siesta: FreeEng =      -297.564411

        iscf     Eharris(eV)        E_KS(eV)     FreeEng(eV)     dDmax    Ef(eV) dHmax(eV)
   scf:    1     -300.275600     -297.492734     -297.564411  0.812868 -5.794585  0.935245
timer: Routine,Calls,Time,% = IterSCF        1       0.502  20.96
   scf:    2     -297.592939     -297.544084     -297.615763  0.007750 -5.912317  0.702760
   scf:    3     -294.248842     -296.661465     -296.719431  0.449383 -6.206322  1.530443
   scf:    4     -297.338620     -297.018638     -297.097340  0.071925 -6.200546  1.224978
   scf:    5     -296.059529     -296.566291     -296.618048  0.090624 -6.245984  1.608264
   scf:    6     -296.966897     -297.584393     -297.656502  0.424992 -6.278509  0.459048
   scf:    7     -297.593673     -297.589064     -297.661606  0.002053 -6.275274  0.429324
   scf:    8     -297.662328     -297.645185     -297.735480  0.056309 -6.237773  0.088381
   scf:    9     -297.629995     -297.642516     -297.737562  0.034397 -6.232902  0.059215
mix: Pulay -- resetting history
mix: switching mixer --> Linear-Kick
   scf:   10     -297.634729     -297.638897     -297.734819  0.009081 -6.219785  0.089933
mix: switching mixer --> Pulay
   scf:   11     -297.551328     -297.623172     -297.705092  0.080393 -6.236523  0.287796
   scf:   12     -297.643986     -297.646391     -297.739178  0.053523 -6.236175  0.023017
   scf:   13     -297.600842     -297.630466     -297.727440  0.041450 -6.244930  0.160437
   scf:   14     -297.649111     -297.646352     -297.739252  0.039948 -6.245007  0.016354
   scf:   15     -297.645981     -297.646183     -297.739353  0.002054 -6.245921  0.007317
   scf:   16     -297.645874     -297.646036     -297.739379  0.001291 -6.246005  0.001822
   scf:   17     -297.645899     -297.645969     -297.739381  0.000526 -6.245831  0.000448
   scf:   18     -297.645970     -297.645969     -297.739381  0.000011 -6.245968  0.000418
mix: Pulay -- inversion failed, > SVD [rank/size] 5 / 8
   scf:   19     -297.645980     -297.645975     -297.739381  0.000040 -6.245999  0.000253
mix: Pulay -- inversion failed, > SVD [rank/size] 4 / 8
mix: Pulay -- resetting history
mix: switching mixer --> Linear-Kick
   scf:   20     -297.645977     -297.645976     -297.739381  0.000010 -6.245998  0.000211
mix: switching mixer --> Pulay
   scf:   21     -297.646036     -297.646006     -297.739380  0.000235 -6.245997  0.000832
   scf:   22     -297.645958     -297.645982     -297.739381  0.000186 -6.245998  0.000007
   scf:   23     -297.645982     -297.645982     -297.739381  0.000001 -6.245991  0.000003

SCF Convergence by DM+H criterion
max |DM_out - DM_in|         :     0.0000006694
max |H_out - H_in|      (eV) :     0.0000025988
SCF cycle converged after 23 iterations

Using DM_out to compute the final energy and forces
No. of atoms with KB's overlaping orbs in proc 0. Max # of overlaps:       2      26

siesta: E_KS(eV) =             -297.6460

siesta: E_KS - E_eggbox =      -297.6460

siesta: Atomic forces (eV/Ang):
     1    6.097556    0.000000    0.000000
     2   -6.095712   -0.000000    0.000000
----------------------------------------
   Tot    0.001845    0.000000    0.000000
----------------------------------------
   Max    6.097556
   Res    3.519893    sqrt( Sum f_i^2 / 3N )
----------------------------------------
   Max    6.097556    constrained

Stress tensor Voigt[x,y,z,yz,xz,xy] (kbar):       16.81        0.00        0.00       -0.00       -0.00        0.00
(Free)E + p*V (eV/cell)     -301.2360
Target enthalpy (eV/cell)     -297.7394

mulliken: Atomic and Orbital Populations:

Species: C                   
Atom  Qatom  Qorb
               2s      2s      2py     2pz     2px     2py     2pz     2px     
               3Pdxy   3Pdyz   3Pdz2   3Pdxz   3Pdx2-y2
   1  4.000   1.672   0.103   0.562   0.562   0.910   0.011   0.011   0.128
              0.010   0.000   0.006   0.010   0.017
   2  4.000   1.672   0.103   0.562   0.562   0.909   0.011   0.011   0.129
              0.010   0.000   0.006   0.010   0.017

mulliken: Qtot =        8.000

Mulliken Atomic Populations:
Atom #   charge [q] valence [e]  Species
     1    -0.000023    4.000023  C
     2     0.000023    3.999977  C
--------------------
 Total    -0.000000

coxmol: Writing XMOL coordinates into file dimer_distance.xyz                                                                                                                                                                                                                  

siesta: Program's energy decomposition (eV):
siesta: Ebs     =       -79.501822
siesta: Eions   =       522.735435
siesta: Ena     =       127.975000
siesta: Ekin    =       174.144497
siesta: Enl     =        -0.239377
siesta: Eso     =         0.000000
siesta: Edftu   =         0.000000
siesta: DEna    =         4.275630
siesta: DUscf   =         0.390624
siesta: DUext   =         0.000000
siesta: Ex      =       -74.447047
siesta: Ec      =        -7.009873
siesta: Exc     =       -81.456920
siesta: EbV     =         0.000000
siesta: eta*DQ  =         0.000000
siesta: Emadel  =         0.000000
siesta: Emeta   =         0.000000
siesta: Emolmec =         0.000000
siesta: Ekinion =         0.000000
siesta: Eharris =      -297.645982
siesta: Etot    =      -297.645982
siesta: FreeEng =      -297.739381

siesta: Final energy (eV):
siesta:  Band Struct. =     -79.501822
siesta:       Kinetic =     174.144497
siesta:       Hartree =     248.540762
siesta:         Edftu =       0.000000
siesta:       Eso     =       0.000000
siesta:    Ext. field =       0.000000
siesta:         Exch. =     -74.447047
siesta:         Corr. =      -7.009873
siesta:     Bulk bias =       0.000000
siesta:   Exch.-corr. =     -81.456920
siesta:  Ion-electron =    -645.249204
siesta:       Ion-ion =       6.374883
siesta:       Ekinion =       0.000000
siesta: D3 dispersion =       0.000000
siesta:         Total =    -297.645982
siesta:         Fermi =      -6.245991

siesta: Atomic forces (eV/Ang):
siesta:      1    6.097556    0.000000    0.000000
siesta:      2   -6.095712   -0.000000    0.000000
siesta: ----------------------------------------
siesta:    Tot    0.001845    0.000000    0.000000

siesta: Stress tensor (static) (eV/Ang**3):
siesta:     0.010489   -0.000000    0.000000
siesta:     0.000000    0.000000   -0.000000
siesta:    -0.000000   -0.000000    0.000000

siesta: Cell volume =       1000.000000 Ang**3

siesta: Pressure (static):
siesta:                Solid            Molecule  Units
siesta:          -0.00003808         -0.00000001  Ry/Bohr**3
siesta:          -0.00349659         -0.00000118  eV/Ang**3
siesta:          -5.60215015         -0.00189628  kBar
(Free)E+ p_basis*V_orbitals  =        -296.979976
(Free)Eharris+ p_basis*V_orbitals  =        -296.979976

mulliken: Atomic and Orbital Populations:

Species: C                   
Atom  Qatom  Qorb
               2s      2s      2py     2pz     2px     2py     2pz     2px     
               3Pdxy   3Pdyz   3Pdz2   3Pdxz   3Pdx2-y2
   1  4.000   1.672   0.103   0.562   0.562   0.910   0.011   0.011   0.128
              0.010   0.000   0.006   0.010   0.017
   2  4.000   1.672   0.103   0.562   0.562   0.909   0.011   0.011   0.129
              0.010   0.000   0.006   0.010   0.017

mulliken: Qtot =        8.000

Mulliken Atomic Populations:
Atom #   charge [q] valence [e]  Species
     1    -0.000023    4.000023  C
     2     0.000023    3.999977  C
--------------------
 Total    -0.000000

siesta: Electric dipole (a.u.)  =    0.000011   -0.000000   -0.000000
siesta: Electric dipole (Debye) =    0.000029   -0.000000   -0.000000

Hirshfeld Atomic Populations:
Atom #   charge [q] valence [e]  Species
     1    -0.000005    4.000005  C
     2     0.000005    3.999995  C
--------------------
 Total     0.000000

Voronoi Atomic Populations:
Atom #   charge [q] valence [e]  Species
     1    -0.005459    4.005459  C
     2     0.005459    3.994541  C
--------------------
 Total     0.000000

cite: Please indicate the Siesta version in published work: 5.2.2
cite: This calculation has made use of features in the following articles
cite: which we encourage you to cite in published work.
cite: (Please see "dimer_distance.bib" for a BibTeX file.)
        Primary SIESTA paper
          DOI: www.doi.org/10.1088/0953-8984/14/11/302


timer: Elapsed wall time (sec) =      15.152
timer: CPU execution times (sec):

Routine            Calls   Time/call    Tot.time        %
siesta                 1      14.783      14.783   100.00
Setup                  1       0.148       0.148     1.00
bands                  1       0.000       0.000     0.00
KSV_init               1       0.000       0.000     0.00
IterGeom               1      13.875      13.875    93.86
geom_init              1       1.743       1.743    11.79
state_init             1       0.139       0.139     0.94
hsparse                1       0.000       0.000     0.00
overlap                1       0.137       0.137     0.93
Setup_H0               1       1.111       1.111     7.51
naefs                  2       0.000       0.000     0.00
dnaefs                 2       0.000       0.000     0.00
MolMec                 2       0.000       0.000     0.00
kinefsm                2       0.062       0.125     0.84
nlefsm                 2       0.238       0.476     3.22
DHSCF_Init             1       0.511       0.511     3.46
DHSCF1                 1       0.048       0.048     0.32
InitMesh               1       0.048       0.048     0.32
INITMESH               1       0.000       0.000     0.00
DHSCF2                 1       0.464       0.464     3.14
REMESH                 1       0.017       0.017     0.11
REORD                 61       0.003       0.183     1.24
PHION                  1       0.274       0.274     1.85
COMM_BSC             108       0.002       0.227     1.53
POISON                27       0.108       2.927    19.80
fft                   54       0.037       1.975    13.36
setup_H               24       0.492      11.802    79.83
DHSCF                 26       0.511      13.288    89.88
DHSCF3                26       0.499      12.962    87.68
rhoofd                26       0.037       0.962     6.51
XC                    26       0.278       7.220    48.84
GXC-CellXC            26       0.267       6.946    46.99
gridxc@cellXC         26       0.267       6.946    46.99
vmat                  25       0.026       0.639     4.33
IterSCF               23       0.493      11.328    76.63
compute_dm            23       0.000       0.009     0.06
diagon                23       0.000       0.008     0.05
r-eigvec              23       0.000       0.006     0.04
r-buildHS             23       0.000       0.000     0.00
rdiag                 23       0.000       0.006     0.04
rdiag1                23       0.000       0.000     0.00
rdiag2                23       0.000       0.000     0.00
rdiag3                23       0.000       0.004     0.02
rdiag4                23       0.000       0.001     0.00
r-buildD              23       0.000       0.001     0.01
MIXER                 22       0.000       0.001     0.01
PostSCF                1       0.802       0.802     5.43
FINAL_HF               1       0.802       0.802     5.43
DHSCF4                 1       0.326       0.326     2.20
dfscf                  1       0.284       0.284     1.92
overfsm                1       0.000       0.000     0.00
writeHSX               1       0.000       0.000     0.00
state_analysis         1       0.001       0.001     0.01
siesta_move            1       0.000       0.000     0.00
Analysis               1       0.757       0.757     5.12
optical                1       0.000       0.000     0.00
partial-charges        1       0.310       0.310     2.10
  

>> End of run:  28-MAR-2025  16:13:53
Job completed
