Executable      : siesta
Version         : 5.2.2
Architecture    : x86_64
Compiler version: GNU-13.3.0
Compiler flags  : -march=nocona -mtune=haswell -ftree-vectorize -fPIC -fstack-protector-strong -fno-plt -O2 -ffunction-sections -pipe -isystem <prefix>/include -I<prefix>/_build_env/include -fdebug-prefix-map=<prefix>/work=/usr/local/src/conda/siesta-5.2.2 -fdebug-prefix-map=<prefix>=/usr/local/src/conda-prefix -I<prefix>/lib -fallow-argument-mismatch -O3
Parallelisations: none
NetCDF support
NetCDF-4 support
Lua support
DFT-D3 support

Runtime information:
* Directory : /v/rconte1/dimer/distance2/runs/run035
* Running in serial mode.
>> Start of run:  28-MAR-2025  16:13:23

                           *********************** 
                           *  WELCOME TO SIESTA  * 
                           *********************** 

 NOTE: Siesta V5 introduces some new defaults for basis-set generation
 NOTE: which might lead to slightly different numerical results.
 NOTE: Please see the manual for full details and compatibility measures.


reinit: Reading from standard input
reinit: Dumping input in INPUT_TMP.29382
************************** Dump of input data file ****************************
#DON'T FORGET TO PUT THE .PSF FILE TO THE SAME DIRECTORY
SystemName          Dimer of Carbon                     # Name of the system we want to investigate
SystemLabel         dimer_distance                           # name of output files
NumberOfAtoms       2                                # how many number in the unit cell? Dimer -> 2 atoms
NumberOfSpecies     1                                # how many different type of atoms? Dimer -> 1
%block ChemicalSpeciesLabel
 1  6  C        # Species index, atomic number, species label
%endblock ChemicalSpeciesLabel
# ----------------------
# STRUCTURAL INFORMATION
# ----------------------
LatticeConstant     1.0 Ang
%block LatticeVectors
   10.000000    0.000000    0.000000
    0.000000   10.000000    0.000000
    0.000000    0.000000   10.000000
%endblock LatticeVectors
AtomicCoordinatesFormat Ang
%block AtomicCoordinatesAndAtomicSpecies
    0.000000     0.000000     0.000000   1
    1.700     0.000000     0.000000   1
%endblock AtomicCoordinatesAndAtomicSpecies
# --
# XC
# --
xc.functional	        GGA	
xc.authors		PBE	
# ----
# GRID
# ----
# MeshCutoff 		200. Ry
# ---------------
# Solution Method
# ---------------
SolutionMethod		diagon
ElectronicTemperature	300 K	
# ---
# SCF
# ---
SCF.DM.Tolerance         5.E-6
SCF.H.Tolerance          5.E-5 eV
SCF.Mix                  Hamiltonian
# SCF.Mix.Spin             all
SCF.Mixer.Method         Pulay
SCF.Mixer.Weight         0.15
SCF.Mixer.Kick           10
SCF.Mixer.History        20
MaxSCFIterations	     200
DM.UseSaveDM	     	 T
SaveHS                   T
# --------------
# OUTPUT OPTIONS
# --------------
WriteEigenvalues       F
WriteForces            T
WriteCoorStep          T
WriteCoorXmol          T     # generate the .xyz file 
WriteMDXmol            T     # generate the .ani file 
WriteMullikenPop       1
Write.HirshfeldPop     T
Write.VoronoiPop       T
Write.DM.NetCDF        T
Write.DMHS.NetCDF      T
************************** End of input data file *****************************

reinit: -----------------------------------------------------------------------
reinit: System Name: Dimer of Carbon
reinit: -----------------------------------------------------------------------
reinit: System Label: dimer_distance
reinit: -----------------------------------------------------------------------

initatom: Reading input for the pseudopotentials and atomic orbitals ----------
Species number:   1 Atomic number:    6 Label: C

Ground state valence configuration (from tables):   2s02  2p02  3d00  4f00

---- Processing specs for species: C
Reading pseudopotential information in formatted form from:
  C.psf

---- Pseudopotential check for  C

Pseudized shells:
2s( 2.00) rc: 1.56
2p( 2.00) rc: 1.56
3d( 0.00) rc: 1.56
4f( 0.00) rc: 1.56
Valence configuration for ps generation: (assumed as above)
For C, standard SIESTA heuristics set lmxkb to 3
 (one more than the basis l, including polarization orbitals).
Use PS.lmax or PS.KBprojectors blocks to override.

<basis_specs>
===============================================================================
C                    Z=   6    Mass=  12.011        Charge= 0.17977+309
Lmxo=2 Lmxkb= 3    BasisType=split      Semic=F
L=0  Nsemic=0  Cnfigmx=2
          i=1  nzeta=2  polorb=0  (2s)
            splnorm:   0.15000    
               vcte:    40.000    
               rinn:  -0.90000    
               qcoe:    0.0000    
               qyuk:    0.0000    
               qwid:   0.10000E-01
                rcs:    0.0000      0.0000    
            lambdas:    1.0000      1.0000    
L=1  Nsemic=0  Cnfigmx=2
          i=1  nzeta=2  polorb=1  (2p)  (to be polarized perturbatively)
            splnorm:   0.15000    
               vcte:    40.000    
               rinn:  -0.90000    
               qcoe:    0.0000    
               qyuk:    0.0000    
               qwid:   0.10000E-01
                rcs:    0.0000      0.0000    
            lambdas:    1.0000      1.0000    
L=2  Nsemic=0  Cnfigmx=3
          i=1  nzeta=0  polorb=0  (3d)  (perturbative polarization orbital) (from 2p)
-------------------------------------------------------------------------------
L=0  Nkbl=1  erefs: 0.17977+309
L=1  Nkbl=1  erefs: 0.17977+309
L=2  Nkbl=1  erefs: 0.17977+309
L=3  Nkbl=1  erefs: 0.17977+309
===============================================================================
</basis_specs>

Using PAO.SplitTailNorm
atom: Called for C                     (Z =   6)
Maximum radius (at nrval) set to   50.00000 8518

read_vps: Pseudopotential generation method:
read_vps: ATM 3.2.2 Troullier-Martins                       
Valence charge in pseudo generation:    4.00000

xc_check: Exchange-correlation functional:
xc_check: GGA Perdew, Burke & Ernzerhof 1996
V l=0 = -2*Zval/r beyond r=  1.5347
V l=1 = -2*Zval/r beyond r=  1.5332
V l=2 = -2*Zval/r beyond r=  1.5347
V l=3 = -2*Zval/r beyond r=  1.5347
All V_l potentials equal beyond r=  1.4890
This should be close to max(r_c) in ps generation
All pots = -2*Zval/r beyond r=  1.5347
Using small-core scheme (local charge) for Vlocal

VLOCAL_FROM_CHLOCAL: 99.0% of the norm of Vloc inside     19.577 Ry
VLOCAL_FROM_CHLOCAL: 99.9% of the norm of Vloc inside     44.617 Ry
atom: Maximum radius for chlocal:    1.77931
atom: Maximum radius for r*vlocal+2*Zval:    1.63022

KBgen: Kleinman-Bylander projectors: 
GHOST: No ghost state for L =  0
   l= 0   rc=  1.646704   el= -1.010689   Ekb=  5.277734   kbcos=  0.315993
GHOST: No ghost state for L =  1
   l= 1   rc=  1.648361   el= -0.388490   Ekb= -4.115733   kbcos= -0.351483
GHOST: No ghost state for L =  2
   l= 2   rc=  1.735131   el=  0.012917   Ekb= -1.012311   kbcos= -0.009283
GHOST: No ghost state for L =  3
   l= 3   rc=  1.777521   el=  0.019225   Ekb= -0.424772   kbcos= -0.001204

KBgen: Total number of Kleinman-Bylander projectors:  16
atom: -------------------------------------------------------------------------

atom: SANKEY-TYPE ORBITALS:
atom: Selected multiple-zeta basis: split     

SPLIT: Orbitals with angular momentum L= 0

SPLIT: Basis orbitals for state 2s

SPLIT: PAO cut-off radius determined from an
SPLIT: energy shift=  0.010000 Ry
Split based on tail norm

   izeta = 1
                 lambda =    1.000000
                     rc =    4.484389
                 energy =   -0.999400
                kinetic =    0.879719
    potential(screened) =   -1.879119
       potential(ionic) =   -5.474723

   izeta = 2
                 rmatch =    3.048210
              splitnorm =    0.150000
                 energy =   -0.737057
                kinetic =    1.553917
    potential(screened) =   -2.290974
       potential(ionic) =   -6.191799

SPLIT: Orbitals with angular momentum L= 1

SPLIT: Basis orbitals for state 2p

SPLIT: PAO cut-off radius determined from an
SPLIT: energy shift=  0.010000 Ry
Split based on tail norm

   izeta = 1
                 lambda =    1.000000
                     rc =    5.435719
                 energy =   -0.377283
                kinetic =    2.459011
    potential(screened) =   -2.836294
       potential(ionic) =   -6.303833

   izeta = 2
                 rmatch =    3.691839
              splitnorm =    0.150000
                 energy =   -0.247686
                kinetic =    3.567780
    potential(screened) =   -3.815466
       potential(ionic) =   -7.634895

POLgen: Perturbative polarization orbital with L=  2

POLgen: Polarization orbital for state 2p
Split based on tail norm

   izeta = 1
                     rc =    5.435719
                 energy =    1.173953
                kinetic =    2.358612
    potential(screened) =   -1.184659
       potential(ionic) =   -4.054396
atom: Total number of Sankey-type orbitals: 13

atm_pop: Valence configuration (for local Pseudopot. screening):
 2s( 2.00)                                                            
 2p( 2.00)                                                            
 3d( 0.00)                                                            
Vna: chval, zval:    4.00000   4.00000

Vna:  Cut-off radius for the neutral-atom potential:   5.435719

atom: _________________________________________________________________________

prinput: Basis input 

PAO.BasisType split     

%block ChemicalSpeciesLabel
    1    6 C                       # Species index, atomic number, species label
%endblock ChemicalSpeciesLabel

%block PAO.Basis                 # Define Basis set
# WARNING: This information might be incomplete!
C                     2                    # Species label, number of l-shells
 n=2   0   2                         # n, l, Nzeta 
   4.484      3.048   
   1.000      1.000   
 n=2   1   2 P   1                   # n, l, Nzeta, Polarization, NzetaPol
   5.436      3.692   
   1.000      1.000   
%endblock PAO.Basis

prinput: ----------------------------------------------------------------------

Dumping basis to NetCDF file C.ion.nc
coor:   Atomic-coordinates input format  =     Cartesian coordinates
coor:                                          (in Angstroms)

siesta: Atomic coordinates (Bohr) and species
siesta:      0.00000   0.00000   0.00000  1        1
siesta:      3.21253   0.00000   0.00000  1        2

siesta: System type = molecule  

initatomlists: Number of atoms, orbitals, and projectors:      2    26    32

coxmol: Writing XMOL coordinates into file dimer_distance.xyz                                                                                                                                                                                                                  

siesta: ******************** Simulation parameters ****************************
siesta:
siesta: The following are some of the parameters of the simulation.
siesta: A complete list of the parameters used, including default values,
siesta: can be found in file out.fdf
siesta:
redata: Spin configuration                          = none
redata: Number of spin components                   = 1
redata: Time-Reversal Symmetry                      = T
redata: Spin spiral                                 = F
redata: Long output                                 =   F
redata: Number of Atomic Species                    =        1
redata: Charge density info will appear in .RHO file
redata: Write Mulliken charges (when)               = geometry+end
redata: Write Mulliken Pop.                         = Atomic and Orbital charges
redata: Write Hirshfeld charges (when)              = end
redata: Write Voronoi charges (when)                = end
redata: Write spin charge (when)                    = none
redata: Matel table size (NRTAB)                    =     1024
redata: Mesh Cutoff                                 =   300.0000 Ry
redata: Net charge of the system                    =     0.0000 |e|
redata: Min. number of SCF Iter                     =        0
redata: Max. number of SCF Iter                     =      200
redata: SCF convergence failure will abort job
redata: SCF mix quantity                            = Hamiltonian
redata: Mix DM or H after convergence               =   F
redata: Recompute H after scf cycle                 =   F
redata: Mix DM in first SCF step                    =   T
redata: Write Pulay info on disk                    =   F
redata: New DM Occupancy tolerance                  = 0.000000000001
redata: No kicks to SCF
redata: DM Mixing Weight for Kicks                  =     0.5000
redata: Require Harris convergence for SCF          =   F
redata: Harris energy tolerance for SCF             =     0.000100 eV
redata: Require DM convergence for SCF              =   T
redata: DM tolerance for SCF                        =     0.000005
redata: Require EDM convergence for SCF             =   F
redata: EDM tolerance for SCF                       =     0.001000 eV
redata: Require H convergence for SCF               =   T
redata: Hamiltonian tolerance for SCF               =     0.000050 eV
redata: Require (free) Energy convergence for SCF   =   F
redata: (free) Energy tolerance for SCF             =     0.000100 eV
redata: Using DFT-D3 dispersion                     =   F
redata: Using Saved Data (generic)                  =   F
redata: Use continuation files for DM               =   T
redata: Neglect nonoverlap interactions             =   F
redata: Method of Calculation                       = Diagonalization
redata: Electronic Temperature                      =   300.0000 K
redata: Fix the spin of the system                  =   F
redata: Max. number of TDED Iter                    =        1
redata: Number of TDED substeps                     =        3
redata: Dynamics option                             = Single-point calculation
mix.SCF: Pulay mixing                            = Pulay
mix.SCF:    Variant                              = stable
mix.SCF:    History steps                        = 9
mix.SCF:    Linear mixing weight                 =     0.150000
mix.SCF:    Mixing weight                        =     0.150000
mix.SCF:    SVD condition                        = 0.1000E-07
mix.SCF:    Restart steps                        = 9
mix.SCF:    Restart save steps                   = 1
mix.SCF:    Number of mixing iterations          = 9
mix.SCF:    Following mixer                      = Linear-Kick
mix.SCF: Linear mixing                           = Linear-Kick
mix.SCF:    Mixing weight                        =     0.500000
mix.SCF:    Number of mixing iterations          = 1
mix.SCF:    Following mixer                      = Pulay
redata: Save all siesta data in one NC              =   F
redata: ***********************************************************************

%block SCF.Mixers
  Pulay
  Linear-Kick
%endblock SCF.Mixers

%block SCF.Mixer.Pulay
  # Mixing method
  method pulay
  variant stable

  # Mixing options
  weight 0.1500
  weight.linear 0.1500
  history 9
  restart 9
  restart.save 1

  # Continuation options
  iterations 9
  next Linear-Kick
%endblock SCF.Mixer.Pulay

%block SCF.Mixer.Linear-Kick
  # Mixing method
  method linear

  # Mixing options
  weight 0.5000

  # Continuation options
  iterations 1
  next Pulay
%endblock SCF.Mixer.Linear-Kick

DM_history_depth set to one: no extrapolation allowed by default for geometry relaxation
Size of DM history Fstack: 1
Total number of electrons:     8.000000
Total ionic charge:     8.000000

siesta: k-grid: Number of k-points = 1
siesta: k-point is Gamma-only

diag: Algorithm                                     = D&C
diag: Used triangular part                          = Lower
diag: Absolute tolerance                            =  0.100E-15
diag: Orthogonalization factor                      =  0.100E-05
diag: Memory factor                                 =  1.0000


ts: **************************************************************
ts: Save H and S matrices                           =    F
ts: Save DM and EDM matrices                        =    F
ts: Only save the overlap matrix S                  =    F
ts: **************************************************************

************************ Begin: TS CHECKS AND WARNINGS ************************
************************ End: TS CHECKS AND WARNINGS **************************


                     ====================================
                        Single-point calculation
                     ====================================

outcoor: Atomic coordinates (Ang):                          
    0.00000000    0.00000000    0.00000000   1       1  C
    1.70000000    0.00000000    0.00000000   1       2  C

outcell: Unit cell vectors (Ang):
       10.000000    0.000000    0.000000
        0.000000   10.000000    0.000000
        0.000000    0.000000   10.000000

outcell: Cell vector modules (Ang)   :   10.000000   10.000000   10.000000
outcell: Cell angles (23,13,12) (deg):     90.0000     90.0000     90.0000
outcell: Cell volume (Ang**3)        :   1000.0000
<dSpData1D:S at geom step 0
  <sparsity:sparsity for geom step 0
    nrows_g=26 nrows=26 sparsity=1.0000 nnzs=676, refcount: 7>
  <dData1D:(new from dSpData1D) n=676, refcount: 1>
refcount: 1>
new_DM -- step:     1
Initializing Density Matrix...

Attempting to read DM from file... Failed...
DM filled with atomic data:
<dSpData2D:DM initialized from atoms
  <sparsity:sparsity for geom step 0
    nrows_g=26 nrows=26 sparsity=1.0000 nnzs=676, refcount: 8>
  <dData2D:DM n=676 m=1, refcount: 1>
refcount: 1>
No. of atoms with KB's overlaping orbs in proc 0. Max # of overlaps:       2      26

InitMesh: MESH = 108 x 108 x 108 = 1259712
InitMesh: Mesh cutoff (required, used) =   300.000   322.366 Ry
New grid distribution [1]: sub = 2

stepf: Fermi-Dirac step function

siesta: Program's energy decomposition (eV):
siesta: Ebs     =       -81.020394
siesta: Eions   =       522.735435
siesta: Ena     =       127.868864
siesta: Ekin    =       174.704548
siesta: Enl     =        -0.760448
siesta: Eso     =         0.000000
siesta: Edftu   =         0.000000
siesta: DEna    =         4.153289
siesta: DUscf   =         1.108249
siesta: DUext   =         0.000000
siesta: Ex      =       -74.997002
siesta: Ec      =        -6.937974
siesta: Exc     =       -81.934975
siesta: EbV     =         0.000000
siesta: eta*DQ  =         0.000000
siesta: Emadel  =         0.000000
siesta: Emeta   =         0.000000
siesta: Emolmec =         0.000000
siesta: Ekinion =         0.000000
siesta: Eharris =      -300.308346
siesta: Etot    =      -297.595908
siesta: FreeEng =      -297.667585

        iscf     Eharris(eV)        E_KS(eV)     FreeEng(eV)     dDmax    Ef(eV) dHmax(eV)
   scf:    1     -300.308346     -297.595908     -297.667585  0.824197 -5.863065  0.948352
timer: Routine,Calls,Time,% = IterSCF        1       0.454  20.94
   scf:    2     -297.697149     -297.647765     -297.719451  0.006977 -5.979231  0.713791
   scf:    3     -293.427442     -296.497101     -296.528598  0.502517 -6.246202  1.759076
   scf:    4     -297.034823     -296.773326     -296.825290  0.044199 -6.240362  1.540673
   scf:    5     -296.192024     -296.490265     -296.521724  0.046287 -6.285627  1.776585
   scf:    6     -296.662738     -297.642056     -297.713734  0.451083 -6.301693  0.718433
   scf:    7     -297.728337     -297.686675     -297.759071  0.014970 -6.315784  0.476259
   scf:    8     -297.762425     -297.727948     -297.809734  0.019043 -6.277977  0.342807
   scf:    9     -297.713273     -297.720757     -297.800902  0.005051 -6.278305  0.373546
mix: Pulay -- resetting history
mix: switching mixer --> Linear-Kick
   scf:   10     -297.775258     -297.752275     -297.840163  0.029311 -6.276505  0.223724
mix: switching mixer --> Pulay
   scf:   11     -296.031860     -297.240325     -297.319293  0.294952 -6.274569  1.054447
   scf:   12     -297.635202     -297.761112     -297.851630  0.279824 -6.283361  0.147311
   scf:   13     -297.761716     -297.761416     -297.852045  0.000657 -6.283423  0.144280
   scf:   14     -297.736465     -297.750343     -297.837618  0.017432 -6.286856  0.229502
   scf:   15     -297.670462     -297.747228     -297.845373  0.094162 -6.303745  0.184827
   scf:   16     -297.748113     -297.747672     -297.845795  0.000545 -6.303735  0.182477
   scf:   17     -297.749815     -297.765510     -297.857968  0.063761 -6.294453  0.093097
   scf:   18     -297.767872     -297.767314     -297.861373  0.012216 -6.296588  0.039077
mix: Pulay -- inversion failed, > SVD [rank/size] 4 / 8
   scf:   19     -297.766675     -297.767206     -297.862081  0.007186 -6.298117  0.007933
mix: Pulay -- inversion failed, > SVD [rank/size] 4 / 8
mix: Pulay -- resetting history
mix: switching mixer --> Linear-Kick
   scf:   20     -297.766901     -297.767064     -297.862111  0.001621 -6.298456  0.000930
mix: switching mixer --> Pulay
   scf:   21     -297.766805     -297.766940     -297.862104  0.001110 -6.298473  0.004053
   scf:   22     -297.767139     -297.767043     -297.862112  0.000911 -6.298379  0.000190
   scf:   23     -297.767037     -297.767040     -297.862112  0.000030 -6.298503  0.000095
   scf:   24     -297.767055     -297.767047     -297.862112  0.000071 -6.298487  0.000213
   scf:   25     -297.767037     -297.767042     -297.862112  0.000049 -6.298499  0.000001
   scf:   26     -297.767041     -297.767042     -297.862112  0.000003 -6.298499  0.000014

SCF Convergence by DM+H criterion
max |DM_out - DM_in|         :     0.0000031219
max |H_out - H_in|      (eV) :     0.0000144492
SCF cycle converged after 26 iterations

Using DM_out to compute the final energy and forces
No. of atoms with KB's overlaping orbs in proc 0. Max # of overlaps:       2      26

siesta: E_KS(eV) =             -297.7670

siesta: E_KS - E_eggbox =      -297.7670

siesta: Atomic forces (eV/Ang):
     1    6.178067    0.000000   -0.000000
     2   -6.175923    0.000000    0.000000
----------------------------------------
   Tot    0.002144    0.000000   -0.000000
----------------------------------------
   Max    6.178067
   Res    3.566290    sqrt( Sum f_i^2 / 3N )
----------------------------------------
   Max    6.178067    constrained

Stress tensor Voigt[x,y,z,yz,xz,xy] (kbar):       16.83        0.00        0.00        0.00       -0.00       -0.00
(Free)E + p*V (eV/cell)     -301.3632
Target enthalpy (eV/cell)     -297.8621

mulliken: Atomic and Orbital Populations:

Species: C                   
Atom  Qatom  Qorb
               2s      2s      2py     2pz     2px     2py     2pz     2px     
               3Pdxy   3Pdyz   3Pdz2   3Pdxz   3Pdx2-y2
   1  4.000   1.652   0.109   0.571   0.571   0.896   0.015   0.015   0.129
              0.010   0.000   0.006   0.010   0.017
   2  4.000   1.652   0.109   0.571   0.571   0.896   0.015   0.015   0.129
              0.010   0.000   0.006   0.010   0.017

mulliken: Qtot =        8.000

Mulliken Atomic Populations:
Atom #   charge [q] valence [e]  Species
     1    -0.000035    4.000035  C
     2     0.000035    3.999965  C
--------------------
 Total    -0.000000

coxmol: Writing XMOL coordinates into file dimer_distance.xyz                                                                                                                                                                                                                  

siesta: Program's energy decomposition (eV):
siesta: Ebs     =       -79.869283
siesta: Eions   =       522.735435
siesta: Ena     =       127.868864
siesta: Ekin    =       174.616964
siesta: Enl     =        -0.519873
siesta: Eso     =         0.000000
siesta: Edftu   =         0.000000
siesta: DEna    =         4.201014
siesta: DUscf   =         0.353726
siesta: DUext   =         0.000000
siesta: Ex      =       -74.523024
siesta: Ec      =        -7.029278
siesta: Exc     =       -81.552302
siesta: EbV     =         0.000000
siesta: eta*DQ  =         0.000000
siesta: Emadel  =         0.000000
siesta: Emeta   =         0.000000
siesta: Emolmec =         0.000000
siesta: Ekinion =         0.000000
siesta: Eharris =      -297.767041
siesta: Etot    =      -297.767042
siesta: FreeEng =      -297.862112

siesta: Final energy (eV):
siesta:  Band Struct. =     -79.869283
siesta:       Kinetic =     174.616964
siesta:       Hartree =     249.867647
siesta:         Edftu =       0.000000
siesta:       Eso     =       0.000000
siesta:    Ext. field =       0.000000
siesta:         Exch. =     -74.523024
siesta:         Corr. =      -7.029278
siesta:     Bulk bias =       0.000000
siesta:   Exch.-corr. =     -81.552302
siesta:  Ion-electron =    -648.614220
siesta:       Ion-ion =       7.914869
siesta:       Ekinion =       0.000000
siesta: D3 dispersion =       0.000000
siesta:         Total =    -297.767042
siesta:         Fermi =      -6.298499

siesta: Atomic forces (eV/Ang):
siesta:      1    6.178067    0.000000   -0.000000
siesta:      2   -6.175923    0.000000    0.000000
siesta: ----------------------------------------
siesta:    Tot    0.002144    0.000000   -0.000000

siesta: Stress tensor (static) (eV/Ang**3):
siesta:     0.010503    0.000000    0.000000
siesta:    -0.000000    0.000000   -0.000000
siesta:    -0.000000    0.000000    0.000000

siesta: Cell volume =       1000.000000 Ang**3

siesta: Pressure (static):
siesta:                Solid            Molecule  Units
siesta:          -0.00003813         -0.00000001  Ry/Bohr**3
siesta:          -0.00350106         -0.00000077  eV/Ang**3
siesta:          -5.60932090         -0.00122689  kBar
(Free)E+ p_basis*V_orbitals  =        -297.102707
(Free)Eharris+ p_basis*V_orbitals  =        -297.102707

mulliken: Atomic and Orbital Populations:

Species: C                   
Atom  Qatom  Qorb
               2s      2s      2py     2pz     2px     2py     2pz     2px     
               3Pdxy   3Pdyz   3Pdz2   3Pdxz   3Pdx2-y2
   1  4.000   1.652   0.109   0.571   0.571   0.896   0.015   0.015   0.129
              0.010   0.000   0.006   0.010   0.017
   2  4.000   1.652   0.109   0.571   0.571   0.896   0.015   0.015   0.129
              0.010   0.000   0.006   0.010   0.017

mulliken: Qtot =        8.000

Mulliken Atomic Populations:
Atom #   charge [q] valence [e]  Species
     1    -0.000035    4.000035  C
     2     0.000035    3.999965  C
--------------------
 Total    -0.000000

siesta: Electric dipole (a.u.)  =    0.000003    0.000000   -0.000000
siesta: Electric dipole (Debye) =    0.000009    0.000000   -0.000000

Hirshfeld Atomic Populations:
Atom #   charge [q] valence [e]  Species
     1    -0.000005    4.000005  C
     2     0.000006    3.999994  C
--------------------
 Total     0.000001

Voronoi Atomic Populations:
Atom #   charge [q] valence [e]  Species
     1    -0.008187    4.008187  C
     2     0.008188    3.991812  C
--------------------
 Total     0.000001

cite: Please indicate the Siesta version in published work: 5.2.2
cite: This calculation has made use of features in the following articles
cite: which we encourage you to cite in published work.
cite: (Please see "dimer_distance.bib" for a BibTeX file.)
        Primary SIESTA paper
          DOI: www.doi.org/10.1088/0953-8984/14/11/302


timer: Elapsed wall time (sec) =      14.870
timer: CPU execution times (sec):

Routine            Calls   Time/call    Tot.time        %
siesta                 1      14.533      14.533   100.00
Setup                  1       0.137       0.137     0.94
bands                  1       0.000       0.000     0.00
KSV_init               1       0.000       0.000     0.00
IterGeom               1      13.717      13.717    94.38
geom_init              1       1.578       1.578    10.86
state_init             1       0.116       0.116     0.80
hsparse                1       0.000       0.000     0.00
overlap                1       0.114       0.114     0.78
Setup_H0               1       0.998       0.998     6.86
naefs                  2       0.000       0.000     0.00
dnaefs                 2       0.000       0.000     0.00
MolMec                 2       0.000       0.000     0.00
kinefsm                2       0.056       0.111     0.77
nlefsm                 2       0.217       0.433     2.98
DHSCF_Init             1       0.454       0.454     3.12
DHSCF1                 1       0.043       0.043     0.30
InitMesh               1       0.043       0.043     0.30
INITMESH               1       0.000       0.000     0.00
DHSCF2                 1       0.411       0.411     2.83
REMESH                 1       0.016       0.016     0.11
REORD                 67       0.003       0.181     1.24
PHION                  1       0.233       0.233     1.60
COMM_BSC             120       0.002       0.228     1.57
POISON                30       0.098       2.932    20.17
fft                   60       0.033       1.978    13.61
setup_H               27       0.439      11.863    81.63
DHSCF                 29       0.454      13.178    90.68
DHSCF3                29       0.445      12.904    88.79
rhoofd                29       0.033       0.946     6.51
XC                    29       0.248       7.206    49.59
GXC-CellXC            29       0.239       6.929    47.67
gridxc@cellXC         29       0.239       6.928    47.67
vmat                  28       0.022       0.629     4.33
IterSCF               26       0.439      11.420    78.58
compute_dm            26       0.000       0.010     0.07
diagon                26       0.000       0.009     0.06
r-eigvec              26       0.000       0.007     0.05
r-buildHS             26       0.000       0.000     0.00
rdiag                 26       0.000       0.006     0.04
rdiag1                26       0.000       0.001     0.00
rdiag2                26       0.000       0.001     0.00
rdiag3                26       0.000       0.004     0.03
rdiag4                26       0.000       0.001     0.00
r-buildD              26       0.000       0.001     0.01
MIXER                 25       0.000       0.001     0.01
PostSCF                1       0.716       0.716     4.93
FINAL_HF               1       0.716       0.716     4.93
DHSCF4                 1       0.274       0.274     1.89
dfscf                  1       0.236       0.236     1.62
overfsm                1       0.000       0.000     0.00
writeHSX               1       0.000       0.000     0.00
state_analysis         1       0.001       0.001     0.01
siesta_move            1       0.000       0.000     0.00
Analysis               1       0.676       0.676     4.65
optical                1       0.000       0.000     0.00
partial-charges        1       0.267       0.267     1.83
  

>> End of run:  28-MAR-2025  16:13:38
Job completed
