Executable      : siesta
Version         : 5.2.2
Architecture    : x86_64
Compiler version: GNU-13.3.0
Compiler flags  : -march=nocona -mtune=haswell -ftree-vectorize -fPIC -fstack-protector-strong -fno-plt -O2 -ffunction-sections -pipe -isystem <prefix>/include -I<prefix>/_build_env/include -fdebug-prefix-map=<prefix>/work=/usr/local/src/conda/siesta-5.2.2 -fdebug-prefix-map=<prefix>=/usr/local/src/conda-prefix -I<prefix>/lib -fallow-argument-mismatch -O3
Parallelisations: none
NetCDF support
NetCDF-4 support
Lua support
DFT-D3 support

Runtime information:
* Directory : /v/rconte1/dimer/distance2/runs/run018
* Running in serial mode.
>> Start of run:  28-MAR-2025  16:09:23

                           *********************** 
                           *  WELCOME TO SIESTA  * 
                           *********************** 

 NOTE: Siesta V5 introduces some new defaults for basis-set generation
 NOTE: which might lead to slightly different numerical results.
 NOTE: Please see the manual for full details and compatibility measures.


reinit: Reading from standard input
reinit: Dumping input in INPUT_TMP.89346
************************** Dump of input data file ****************************
#DON'T FORGET TO PUT THE .PSF FILE TO THE SAME DIRECTORY
SystemName          Dimer of Carbon                     # Name of the system we want to investigate
SystemLabel         dimer_distance                           # name of output files
NumberOfAtoms       2                                # how many number in the unit cell? Dimer -> 2 atoms
NumberOfSpecies     1                                # how many different type of atoms? Dimer -> 1
%block ChemicalSpeciesLabel
 1  6  C        # Species index, atomic number, species label
%endblock ChemicalSpeciesLabel
# ----------------------
# STRUCTURAL INFORMATION
# ----------------------
LatticeConstant     1.0 Ang
%block LatticeVectors
   10.000000    0.000000    0.000000
    0.000000   10.000000    0.000000
    0.000000    0.000000   10.000000
%endblock LatticeVectors
AtomicCoordinatesFormat Ang
%block AtomicCoordinatesAndAtomicSpecies
    0.000000     0.000000     0.000000   1
    1.360     0.000000     0.000000   1
%endblock AtomicCoordinatesAndAtomicSpecies
# --
# XC
# --
xc.functional	        GGA	
xc.authors		PBE	
# ----
# GRID
# ----
# MeshCutoff 		200. Ry
# ---------------
# Solution Method
# ---------------
SolutionMethod		diagon
ElectronicTemperature	300 K	
# ---
# SCF
# ---
SCF.DM.Tolerance         5.E-6
SCF.H.Tolerance          5.E-5 eV
SCF.Mix                  Hamiltonian
# SCF.Mix.Spin             all
SCF.Mixer.Method         Pulay
SCF.Mixer.Weight         0.15
SCF.Mixer.Kick           10
SCF.Mixer.History        20
MaxSCFIterations	     200
DM.UseSaveDM	     	 T
SaveHS                   T
# --------------
# OUTPUT OPTIONS
# --------------
WriteEigenvalues       F
WriteForces            T
WriteCoorStep          T
WriteCoorXmol          T     # generate the .xyz file 
WriteMDXmol            T     # generate the .ani file 
WriteMullikenPop       1
Write.HirshfeldPop     T
Write.VoronoiPop       T
Write.DM.NetCDF        T
Write.DMHS.NetCDF      T
************************** End of input data file *****************************

reinit: -----------------------------------------------------------------------
reinit: System Name: Dimer of Carbon
reinit: -----------------------------------------------------------------------
reinit: System Label: dimer_distance
reinit: -----------------------------------------------------------------------

initatom: Reading input for the pseudopotentials and atomic orbitals ----------
Species number:   1 Atomic number:    6 Label: C

Ground state valence configuration (from tables):   2s02  2p02  3d00  4f00

---- Processing specs for species: C
Reading pseudopotential information in formatted form from:
  C.psf

---- Pseudopotential check for  C

Pseudized shells:
2s( 2.00) rc: 1.56
2p( 2.00) rc: 1.56
3d( 0.00) rc: 1.56
4f( 0.00) rc: 1.56
Valence configuration for ps generation: (assumed as above)
For C, standard SIESTA heuristics set lmxkb to 3
 (one more than the basis l, including polarization orbitals).
Use PS.lmax or PS.KBprojectors blocks to override.

<basis_specs>
===============================================================================
C                    Z=   6    Mass=  12.011        Charge= 0.17977+309
Lmxo=2 Lmxkb= 3    BasisType=split      Semic=F
L=0  Nsemic=0  Cnfigmx=2
          i=1  nzeta=2  polorb=0  (2s)
            splnorm:   0.15000    
               vcte:    40.000    
               rinn:  -0.90000    
               qcoe:    0.0000    
               qyuk:    0.0000    
               qwid:   0.10000E-01
                rcs:    0.0000      0.0000    
            lambdas:    1.0000      1.0000    
L=1  Nsemic=0  Cnfigmx=2
          i=1  nzeta=2  polorb=1  (2p)  (to be polarized perturbatively)
            splnorm:   0.15000    
               vcte:    40.000    
               rinn:  -0.90000    
               qcoe:    0.0000    
               qyuk:    0.0000    
               qwid:   0.10000E-01
                rcs:    0.0000      0.0000    
            lambdas:    1.0000      1.0000    
L=2  Nsemic=0  Cnfigmx=3
          i=1  nzeta=0  polorb=0  (3d)  (perturbative polarization orbital) (from 2p)
-------------------------------------------------------------------------------
L=0  Nkbl=1  erefs: 0.17977+309
L=1  Nkbl=1  erefs: 0.17977+309
L=2  Nkbl=1  erefs: 0.17977+309
L=3  Nkbl=1  erefs: 0.17977+309
===============================================================================
</basis_specs>

Using PAO.SplitTailNorm
atom: Called for C                     (Z =   6)
Maximum radius (at nrval) set to   50.00000 8518

read_vps: Pseudopotential generation method:
read_vps: ATM 3.2.2 Troullier-Martins                       
Valence charge in pseudo generation:    4.00000

xc_check: Exchange-correlation functional:
xc_check: GGA Perdew, Burke & Ernzerhof 1996
V l=0 = -2*Zval/r beyond r=  1.5347
V l=1 = -2*Zval/r beyond r=  1.5332
V l=2 = -2*Zval/r beyond r=  1.5347
V l=3 = -2*Zval/r beyond r=  1.5347
All V_l potentials equal beyond r=  1.4890
This should be close to max(r_c) in ps generation
All pots = -2*Zval/r beyond r=  1.5347
Using small-core scheme (local charge) for Vlocal

VLOCAL_FROM_CHLOCAL: 99.0% of the norm of Vloc inside     19.577 Ry
VLOCAL_FROM_CHLOCAL: 99.9% of the norm of Vloc inside     44.617 Ry
atom: Maximum radius for chlocal:    1.77931
atom: Maximum radius for r*vlocal+2*Zval:    1.63022

KBgen: Kleinman-Bylander projectors: 
GHOST: No ghost state for L =  0
   l= 0   rc=  1.646704   el= -1.010689   Ekb=  5.277734   kbcos=  0.315993
GHOST: No ghost state for L =  1
   l= 1   rc=  1.648361   el= -0.388490   Ekb= -4.115733   kbcos= -0.351483
GHOST: No ghost state for L =  2
   l= 2   rc=  1.735131   el=  0.012917   Ekb= -1.012311   kbcos= -0.009283
GHOST: No ghost state for L =  3
   l= 3   rc=  1.777521   el=  0.019225   Ekb= -0.424772   kbcos= -0.001204

KBgen: Total number of Kleinman-Bylander projectors:  16
atom: -------------------------------------------------------------------------

atom: SANKEY-TYPE ORBITALS:
atom: Selected multiple-zeta basis: split     

SPLIT: Orbitals with angular momentum L= 0

SPLIT: Basis orbitals for state 2s

SPLIT: PAO cut-off radius determined from an
SPLIT: energy shift=  0.010000 Ry
Split based on tail norm

   izeta = 1
                 lambda =    1.000000
                     rc =    4.484389
                 energy =   -0.999400
                kinetic =    0.879719
    potential(screened) =   -1.879119
       potential(ionic) =   -5.474723

   izeta = 2
                 rmatch =    3.048210
              splitnorm =    0.150000
                 energy =   -0.737057
                kinetic =    1.553917
    potential(screened) =   -2.290974
       potential(ionic) =   -6.191799

SPLIT: Orbitals with angular momentum L= 1

SPLIT: Basis orbitals for state 2p

SPLIT: PAO cut-off radius determined from an
SPLIT: energy shift=  0.010000 Ry
Split based on tail norm

   izeta = 1
                 lambda =    1.000000
                     rc =    5.435719
                 energy =   -0.377283
                kinetic =    2.459011
    potential(screened) =   -2.836294
       potential(ionic) =   -6.303833

   izeta = 2
                 rmatch =    3.691839
              splitnorm =    0.150000
                 energy =   -0.247686
                kinetic =    3.567780
    potential(screened) =   -3.815466
       potential(ionic) =   -7.634895

POLgen: Perturbative polarization orbital with L=  2

POLgen: Polarization orbital for state 2p
Split based on tail norm

   izeta = 1
                     rc =    5.435719
                 energy =    1.173953
                kinetic =    2.358612
    potential(screened) =   -1.184659
       potential(ionic) =   -4.054396
atom: Total number of Sankey-type orbitals: 13

atm_pop: Valence configuration (for local Pseudopot. screening):
 2s( 2.00)                                                            
 2p( 2.00)                                                            
 3d( 0.00)                                                            
Vna: chval, zval:    4.00000   4.00000

Vna:  Cut-off radius for the neutral-atom potential:   5.435719

atom: _________________________________________________________________________

prinput: Basis input 

PAO.BasisType split     

%block ChemicalSpeciesLabel
    1    6 C                       # Species index, atomic number, species label
%endblock ChemicalSpeciesLabel

%block PAO.Basis                 # Define Basis set
# WARNING: This information might be incomplete!
C                     2                    # Species label, number of l-shells
 n=2   0   2                         # n, l, Nzeta 
   4.484      3.048   
   1.000      1.000   
 n=2   1   2 P   1                   # n, l, Nzeta, Polarization, NzetaPol
   5.436      3.692   
   1.000      1.000   
%endblock PAO.Basis

prinput: ----------------------------------------------------------------------

Dumping basis to NetCDF file C.ion.nc
coor:   Atomic-coordinates input format  =     Cartesian coordinates
coor:                                          (in Angstroms)

siesta: Atomic coordinates (Bohr) and species
siesta:      0.00000   0.00000   0.00000  1        1
siesta:      2.57003   0.00000   0.00000  1        2

siesta: System type = molecule  

initatomlists: Number of atoms, orbitals, and projectors:      2    26    32

coxmol: Writing XMOL coordinates into file dimer_distance.xyz                                                                                                                                                                                                                  

siesta: ******************** Simulation parameters ****************************
siesta:
siesta: The following are some of the parameters of the simulation.
siesta: A complete list of the parameters used, including default values,
siesta: can be found in file out.fdf
siesta:
redata: Spin configuration                          = none
redata: Number of spin components                   = 1
redata: Time-Reversal Symmetry                      = T
redata: Spin spiral                                 = F
redata: Long output                                 =   F
redata: Number of Atomic Species                    =        1
redata: Charge density info will appear in .RHO file
redata: Write Mulliken charges (when)               = geometry+end
redata: Write Mulliken Pop.                         = Atomic and Orbital charges
redata: Write Hirshfeld charges (when)              = end
redata: Write Voronoi charges (when)                = end
redata: Write spin charge (when)                    = none
redata: Matel table size (NRTAB)                    =     1024
redata: Mesh Cutoff                                 =   300.0000 Ry
redata: Net charge of the system                    =     0.0000 |e|
redata: Min. number of SCF Iter                     =        0
redata: Max. number of SCF Iter                     =      200
redata: SCF convergence failure will abort job
redata: SCF mix quantity                            = Hamiltonian
redata: Mix DM or H after convergence               =   F
redata: Recompute H after scf cycle                 =   F
redata: Mix DM in first SCF step                    =   T
redata: Write Pulay info on disk                    =   F
redata: New DM Occupancy tolerance                  = 0.000000000001
redata: No kicks to SCF
redata: DM Mixing Weight for Kicks                  =     0.5000
redata: Require Harris convergence for SCF          =   F
redata: Harris energy tolerance for SCF             =     0.000100 eV
redata: Require DM convergence for SCF              =   T
redata: DM tolerance for SCF                        =     0.000005
redata: Require EDM convergence for SCF             =   F
redata: EDM tolerance for SCF                       =     0.001000 eV
redata: Require H convergence for SCF               =   T
redata: Hamiltonian tolerance for SCF               =     0.000050 eV
redata: Require (free) Energy convergence for SCF   =   F
redata: (free) Energy tolerance for SCF             =     0.000100 eV
redata: Using DFT-D3 dispersion                     =   F
redata: Using Saved Data (generic)                  =   F
redata: Use continuation files for DM               =   T
redata: Neglect nonoverlap interactions             =   F
redata: Method of Calculation                       = Diagonalization
redata: Electronic Temperature                      =   300.0000 K
redata: Fix the spin of the system                  =   F
redata: Max. number of TDED Iter                    =        1
redata: Number of TDED substeps                     =        3
redata: Dynamics option                             = Single-point calculation
mix.SCF: Pulay mixing                            = Pulay
mix.SCF:    Variant                              = stable
mix.SCF:    History steps                        = 9
mix.SCF:    Linear mixing weight                 =     0.150000
mix.SCF:    Mixing weight                        =     0.150000
mix.SCF:    SVD condition                        = 0.1000E-07
mix.SCF:    Restart steps                        = 9
mix.SCF:    Restart save steps                   = 1
mix.SCF:    Number of mixing iterations          = 9
mix.SCF:    Following mixer                      = Linear-Kick
mix.SCF: Linear mixing                           = Linear-Kick
mix.SCF:    Mixing weight                        =     0.500000
mix.SCF:    Number of mixing iterations          = 1
mix.SCF:    Following mixer                      = Pulay
redata: Save all siesta data in one NC              =   F
redata: ***********************************************************************

%block SCF.Mixers
  Pulay
  Linear-Kick
%endblock SCF.Mixers

%block SCF.Mixer.Pulay
  # Mixing method
  method pulay
  variant stable

  # Mixing options
  weight 0.1500
  weight.linear 0.1500
  history 9
  restart 9
  restart.save 1

  # Continuation options
  iterations 9
  next Linear-Kick
%endblock SCF.Mixer.Pulay

%block SCF.Mixer.Linear-Kick
  # Mixing method
  method linear

  # Mixing options
  weight 0.5000

  # Continuation options
  iterations 1
  next Pulay
%endblock SCF.Mixer.Linear-Kick

DM_history_depth set to one: no extrapolation allowed by default for geometry relaxation
Size of DM history Fstack: 1
Total number of electrons:     8.000000
Total ionic charge:     8.000000

siesta: k-grid: Number of k-points = 1
siesta: k-point is Gamma-only

diag: Algorithm                                     = D&C
diag: Used triangular part                          = Lower
diag: Absolute tolerance                            =  0.100E-15
diag: Orthogonalization factor                      =  0.100E-05
diag: Memory factor                                 =  1.0000


ts: **************************************************************
ts: Save H and S matrices                           =    F
ts: Save DM and EDM matrices                        =    F
ts: Only save the overlap matrix S                  =    F
ts: **************************************************************

************************ Begin: TS CHECKS AND WARNINGS ************************
************************ End: TS CHECKS AND WARNINGS **************************


                     ====================================
                        Single-point calculation
                     ====================================

outcoor: Atomic coordinates (Ang):                          
    0.00000000    0.00000000    0.00000000   1       1  C
    1.36000000    0.00000000    0.00000000   1       2  C

outcell: Unit cell vectors (Ang):
       10.000000    0.000000    0.000000
        0.000000   10.000000    0.000000
        0.000000    0.000000   10.000000

outcell: Cell vector modules (Ang)   :   10.000000   10.000000   10.000000
outcell: Cell angles (23,13,12) (deg):     90.0000     90.0000     90.0000
outcell: Cell volume (Ang**3)        :   1000.0000
<dSpData1D:S at geom step 0
  <sparsity:sparsity for geom step 0
    nrows_g=26 nrows=26 sparsity=1.0000 nnzs=676, refcount: 7>
  <dData1D:(new from dSpData1D) n=676, refcount: 1>
refcount: 1>
new_DM -- step:     1
Initializing Density Matrix...

Attempting to read DM from file... Failed...
DM filled with atomic data:
<dSpData2D:DM initialized from atoms
  <sparsity:sparsity for geom step 0
    nrows_g=26 nrows=26 sparsity=1.0000 nnzs=676, refcount: 8>
  <dData2D:DM n=676 m=1, refcount: 1>
refcount: 1>
No. of atoms with KB's overlaping orbs in proc 0. Max # of overlaps:       2      26

InitMesh: MESH = 108 x 108 x 108 = 1259712
InitMesh: Mesh cutoff (required, used) =   300.000   322.366 Ry
New grid distribution [1]: sub = 2

stepf: Fermi-Dirac step function

siesta: Program's energy decomposition (eV):
siesta: Ebs     =       -80.452959
siesta: Eions   =       522.735435
siesta: Ena     =       125.738022
siesta: Ekin    =       185.542473
siesta: Enl     =        -6.396826
siesta: Eso     =         0.000000
siesta: Edftu   =         0.000000
siesta: DEna    =         2.198624
siesta: DUscf   =         1.256275
siesta: DUext   =         0.000000
siesta: Ex      =       -77.523434
siesta: Ec      =        -7.429734
siesta: Exc     =       -84.953168
siesta: EbV     =         0.000000
siesta: eta*DQ  =         0.000000
siesta: Emadel  =         0.000000
siesta: Emeta   =         0.000000
siesta: Emolmec =         0.000000
siesta: Ekinion =         0.000000
siesta: Eharris =      -300.640171
siesta: Etot    =      -299.350034
siesta: FreeEng =      -299.350127

        iscf     Eharris(eV)        E_KS(eV)     FreeEng(eV)     dDmax    Ef(eV) dHmax(eV)
   scf:    1     -300.640171     -299.350034     -299.350127  1.332813 -7.347475  1.641069
timer: Routine,Calls,Time,% = IterSCF        1       0.441  20.47
   scf:    2     -299.606894     -299.482761     -299.485710  0.015115 -7.273316  1.215089
   scf:    3     -293.707152     -298.124861     -298.196623  0.592841 -7.007986  2.141064
   scf:    4     -298.833923     -298.491010     -298.575739  0.036115 -7.115764  1.703777
   scf:    5     -298.106199     -298.301930     -298.379562  0.025591 -7.099085  1.862762
   scf:    6     -297.697907     -298.006523     -298.078200  0.019035 -6.927544  2.413885
   scf:    7     -298.921088     -299.666163     -299.703096  0.514816 -7.313315  0.577467
   scf:    8     -299.748260     -299.713006     -299.762963  0.039806 -7.191339  0.313044
   scf:    9     -299.333076     -299.556397     -299.564273  0.091818 -7.271779  0.903619
mix: Pulay -- resetting history
mix: switching mixer --> Linear-Kick
   scf:   10     -299.552716     -299.554701     -299.559639  0.008556 -7.195630  0.874321
mix: switching mixer --> Pulay
   scf:   11     -293.870422     -298.141540     -298.213687  0.576075 -7.052611  2.122241
   scf:   12     -299.089966     -299.689386     -299.730778  0.507172 -7.196060  0.438449
   scf:   13     -299.343558     -299.647606     -299.736341  0.183948 -7.152444  0.422963
   scf:   14     -299.662860     -299.727998     -299.785868  0.138154 -7.167907  0.211583
   scf:   15     -299.737565     -299.733787     -299.796688  0.016721 -7.158050  0.137194
   scf:   16     -299.733573     -299.735259     -299.803896  0.020909 -7.148753  0.046680
   scf:   17     -299.727152     -299.732127     -299.804716  0.015525 -7.154494  0.021136
   scf:   18     -299.727308     -299.729862     -299.803928  0.006262 -7.152942  0.047936
   scf:   19     -299.734485     -299.732357     -299.804772  0.006918 -7.153678  0.017062
mix: Pulay -- resetting history
mix: switching mixer --> Linear-Kick
   scf:   20     -299.733772     -299.733089     -299.804881  0.002544 -7.153915  0.005696
mix: switching mixer --> Pulay
   scf:   21     -299.735783     -299.734645     -299.804582  0.007417 -7.154356  0.027886
   scf:   22     -299.731928     -299.733427     -299.804894  0.006093 -7.154001  0.000386
   scf:   23     -299.733375     -299.733401     -299.804894  0.000113 -7.154106  0.000426
   scf:   24     -299.733406     -299.733404     -299.804894  0.000046 -7.154409  0.000355
   scf:   25     -299.733458     -299.733431     -299.804894  0.000113 -7.154368  0.000184
   scf:   26     -299.733425     -299.733428     -299.804894  0.000012 -7.154372  0.000133
   scf:   27     -299.733411     -299.733419     -299.804894  0.000033 -7.154381  0.000007
mix: Pulay -- inversion failed, > SVD [rank/size] 4 / 7
   scf:   28     -299.733420     -299.733420     -299.804894  0.000001 -7.154381  0.000001

SCF Convergence by DM+H criterion
max |DM_out - DM_in|         :     0.0000013805
max |H_out - H_in|      (eV) :     0.0000012649
SCF cycle converged after 28 iterations

Using DM_out to compute the final energy and forces
No. of atoms with KB's overlaping orbs in proc 0. Max # of overlaps:       2      26

siesta: E_KS(eV) =             -299.7334

siesta: E_KS - E_eggbox =      -299.7334

siesta: Atomic forces (eV/Ang):
     1    3.156034    0.000000   -0.000000
     2   -3.154647   -0.000000   -0.000000
----------------------------------------
   Tot    0.001387    0.000000   -0.000000
----------------------------------------
   Max    3.156034
   Res    1.821737    sqrt( Sum f_i^2 / 3N )
----------------------------------------
   Max    3.156034    constrained

Stress tensor Voigt[x,y,z,yz,xz,xy] (kbar):        6.88        0.00        0.00        0.00       -0.00        0.00
(Free)E + p*V (eV/cell)     -301.2364
Target enthalpy (eV/cell)     -299.8049

mulliken: Atomic and Orbital Populations:

Species: C                   
Atom  Qatom  Qorb
               2s      2s      2py     2pz     2px     2py     2pz     2px     
               3Pdxy   3Pdyz   3Pdz2   3Pdxz   3Pdx2-y2
   1  4.000   1.190   0.244   0.708   0.708   0.741   0.138   0.138   0.077
              0.017   0.000   0.005   0.017   0.015
   2  4.000   1.190   0.244   0.708   0.708   0.741   0.138   0.138   0.077
              0.017   0.000   0.005   0.017   0.015

mulliken: Qtot =        8.000

Mulliken Atomic Populations:
Atom #   charge [q] valence [e]  Species
     1     0.000007    3.999993  C
     2    -0.000007    4.000007  C
--------------------
 Total     0.000000

coxmol: Writing XMOL coordinates into file dimer_distance.xyz                                                                                                                                                                                                                  

siesta: Program's energy decomposition (eV):
siesta: Ebs     =       -85.970940
siesta: Eions   =       522.735435
siesta: Ena     =       125.738022
siesta: Ekin    =       186.028483
siesta: Enl     =        -6.077803
siesta: Eso     =         0.000000
siesta: Edftu   =         0.000000
siesta: DEna    =         1.681431
siesta: DUscf   =         0.160475
siesta: DUext   =         0.000000
siesta: Ex      =       -77.135814
siesta: Ec      =        -7.392780
siesta: Exc     =       -84.528594
siesta: EbV     =         0.000000
siesta: eta*DQ  =         0.000000
siesta: Emadel  =         0.000000
siesta: Emeta   =         0.000000
siesta: Emolmec =         0.000000
siesta: Ekinion =         0.000000
siesta: Eharris =      -299.733420
siesta: Etot    =      -299.733420
siesta: FreeEng =      -299.804894

siesta: Final energy (eV):
siesta:  Band Struct. =     -85.970940
siesta:       Kinetic =     186.028483
siesta:       Hartree =     280.052269
siesta:         Edftu =       0.000000
siesta:       Eso     =       0.000000
siesta:    Ext. field =       0.000000
siesta:         Exch. =     -77.135814
siesta:         Corr. =      -7.392780
siesta:     Bulk bias =       0.000000
siesta:   Exch.-corr. =     -84.528594
siesta:  Ion-electron =    -722.544342
siesta:       Ion-ion =      41.258764
siesta:       Ekinion =       0.000000
siesta: D3 dispersion =       0.000000
siesta:         Total =    -299.733420
siesta:         Fermi =      -7.154381

siesta: Atomic forces (eV/Ang):
siesta:      1    3.156034    0.000000   -0.000000
siesta:      2   -3.154647   -0.000000   -0.000000
siesta: ----------------------------------------
siesta:    Tot    0.001387    0.000000   -0.000000

siesta: Stress tensor (static) (eV/Ang**3):
siesta:     0.004292    0.000000    0.000000
siesta:     0.000000    0.000001    0.000000
siesta:    -0.000000    0.000000    0.000001

siesta: Cell volume =       1000.000000 Ang**3

siesta: Pressure (static):
siesta:                Solid            Molecule  Units
siesta:          -0.00001559         -0.00000001  Ry/Bohr**3
siesta:          -0.00143153         -0.00000111  eV/Ang**3
siesta:          -2.29356380         -0.00177688  kBar
(Free)E+ p_basis*V_orbitals  =        -299.045490
(Free)Eharris+ p_basis*V_orbitals  =        -299.045490

mulliken: Atomic and Orbital Populations:

Species: C                   
Atom  Qatom  Qorb
               2s      2s      2py     2pz     2px     2py     2pz     2px     
               3Pdxy   3Pdyz   3Pdz2   3Pdxz   3Pdx2-y2
   1  4.000   1.190   0.244   0.708   0.708   0.741   0.138   0.138   0.077
              0.017   0.000   0.005   0.017   0.015
   2  4.000   1.190   0.244   0.708   0.708   0.741   0.138   0.138   0.077
              0.017   0.000   0.005   0.017   0.015

mulliken: Qtot =        8.000

Mulliken Atomic Populations:
Atom #   charge [q] valence [e]  Species
     1     0.000007    3.999993  C
     2    -0.000007    4.000007  C
--------------------
 Total     0.000000

siesta: Electric dipole (a.u.)  =   -0.000014   -0.000000   -0.000000
siesta: Electric dipole (Debye) =   -0.000036   -0.000000   -0.000000

Hirshfeld Atomic Populations:
Atom #   charge [q] valence [e]  Species
     1     0.000001    3.999999  C
     2    -0.000001    4.000001  C
--------------------
 Total    -0.000000

Voronoi Atomic Populations:
Atom #   charge [q] valence [e]  Species
     1    -0.004983    4.004983  C
     2     0.004983    3.995017  C
--------------------
 Total    -0.000000

cite: Please indicate the Siesta version in published work: 5.2.2
cite: This calculation has made use of features in the following articles
cite: which we encourage you to cite in published work.
cite: (Please see "dimer_distance.bib" for a BibTeX file.)
        Primary SIESTA paper
          DOI: www.doi.org/10.1088/0953-8984/14/11/302


timer: Elapsed wall time (sec) =      15.355
timer: CPU execution times (sec):

Routine            Calls   Time/call    Tot.time        %
siesta                 1      15.009      15.009   100.00
Setup                  1       0.148       0.148     0.99
bands                  1       0.000       0.000     0.00
KSV_init               1       0.000       0.000     0.00
IterGeom               1      14.208      14.208    94.66
geom_init              1       1.565       1.565    10.42
state_init             1       0.139       0.139     0.93
hsparse                1       0.000       0.000     0.00
overlap                1       0.137       0.137     0.92
Setup_H0               1       0.988       0.988     6.58
naefs                  2       0.000       0.000     0.00
dnaefs                 2       0.000       0.000     0.00
MolMec                 2       0.000       0.000     0.00
kinefsm                2       0.054       0.109     0.72
nlefsm                 2       0.217       0.434     2.89
DHSCF_Init             1       0.447       0.447     2.98
DHSCF1                 1       0.044       0.044     0.29
InitMesh               1       0.044       0.044     0.29
INITMESH               1       0.000       0.000     0.00
DHSCF2                 1       0.403       0.403     2.68
REMESH                 1       0.016       0.016     0.10
REORD                 71       0.003       0.188     1.26
PHION                  1       0.237       0.237     1.58
COMM_BSC             128       0.002       0.239     1.60
POISON                32       0.097       3.103    20.68
fft                   64       0.033       2.084    13.88
setup_H               29       0.426      12.342    82.23
DHSCF                 31       0.440      13.625    90.77
DHSCF3                31       0.431      13.352    88.95
rhoofd                31       0.033       1.037     6.91
XC                    31       0.233       7.235    48.20
GXC-CellXC            31       0.224       6.940    46.23
gridxc@cellXC         31       0.224       6.939    46.23
vmat                  30       0.023       0.703     4.68
IterSCF               28       0.426      11.928    79.47
compute_dm            28       0.000       0.010     0.07
diagon                28       0.000       0.009     0.06
r-eigvec              28       0.000       0.007     0.05
r-buildHS             28       0.000       0.000     0.00
rdiag                 28       0.000       0.007     0.05
rdiag1                28       0.000       0.001     0.00
rdiag2                28       0.000       0.001     0.00
rdiag3                28       0.000       0.005     0.03
rdiag4                28       0.000       0.001     0.00
r-buildD              28       0.000       0.001     0.01
MIXER                 27       0.000       0.001     0.01
PostSCF                1       0.713       0.713     4.75
FINAL_HF               1       0.713       0.713     4.75
DHSCF4                 1       0.273       0.273     1.82
dfscf                  1       0.235       0.235     1.57
overfsm                1       0.000       0.000     0.00
writeHSX               1       0.000       0.000     0.00
state_analysis         1       0.001       0.001     0.00
siesta_move            1       0.000       0.000     0.00
Analysis               1       0.651       0.651     4.34
optical                1       0.000       0.000     0.00
partial-charges        1       0.263       0.263     1.75
  

>> End of run:  28-MAR-2025  16:09:38
Job completed
